variables="x","y","tau","u","v","psi"
zone i=201, j=101, f=point
-1.0000000000000000e+00 0.0000000000000000e+00 9.9749498660405445e-01 0.0000000000000000e+00 0.0000000000000000e+00 0.0000000000000000e+00
-9.8999999999999999e-01 0.0000000000000000e+00 -4.5962583208567565e-01 0.0000000000000000e+00 0.0000000000000000e+00 0.0000000000000000e+00
-9.7999999999999998e-01 0.0000000000000000e+00 -5.5452693711849199e-01 0.0000000000000000e+00 0.0000000000000000e+00 0.0000000000000000e+00
-9.6999999999999997e-01 0.0000000000000000e+00 -5.4631807835009250e-01 0.0000000000000000e+00 0.0000000000000000e+00 0.0000000000000000e+00
-9.5999999999999996e-01 0.0000000000000000e+00 -4.8763564316726915e-01 0.0000000000000000e+00 0.0000000000000000e+00 0.0000000000000000e+00
-9.4999999999999996e-01 0.0000000000000000e+00 -4.7100086295570659e-01 0.0000000000000000e+00 0.0000000000000000e+00 0.0000000000000000e+00
-9.3999999999999995e-01 0.0000000000000000e+00 -4.1773576679101904e-01 0.0000000000000000e+00 0.0000000000000000e+00 0.0000000000000000e+00
-9.2999999999999994e-01 0.0000000000000000e+00 -4.0285661745864698e-01 0.0000000000000000e+00 0.0000000000000000e+00 0.0000000000000000e+00
-9.2000000000000004e-01 0.0000000000000000e+00 -4.1151812080536326e-01 0.0000000000000000e+00 0.0000000000000000e+00 0.0000000000000000e+00
-9.1000000000000003e-01 0.0000000000000000e+00 -4.1944772237375710e-01 0.0000000000000000e+00 0.0000000000000000e+00 0.0000000000000000e+00
-9.0000000000000002e-01 0.0000000000000000e+00 -4.1297664218508323e-01 0.0000000000000000e+00 0.0000000000000000e+00 0.0000000000000000e+00
-8.9000000000000001e-01 0.0000000000000000e+00 -3.9003886967896412e-01 0.0000000000000000e+00 0.0000000000000000e+00 0.0000000000000000e+00
-8.8000000000000000e-01 0.0000000000000000e+00 -3.5896681981918749e-01 0.0000000000000000e+00 0.0000000000000000e+00 0.0000000000000000e+00
-8.7000000000000000e-01 0.0000000000000000e+00 -3.2817035038049358e-01 0.0000000000000000e+00 0.0000000000000000e+00 0.0000000000000000e+00
-8.5999999999999999e-01 0.0000000000000000e+00 -3.0124968344747488e-01 0.0000000000000000e+00 0.0000000000000000e+00 0.0000000000000000e+00
-8.4999999999999998e-01 0.0000000000000000e+00 -2.7717240033934148e-01 0.0000000000000000e+00 0.0000000000000000e+00 0.0000000000000000e+00
-8.3999999999999997e-01 0.0000000000000000e+00 -2.5313634688668507e-01 0.0000000000000000e+00 0.0000000000000000e+00 0.0000000000000000e+00
-8.2999999999999996e-01 0.0000000000000000e+00 -2.2636779583981392e-01 0.0000000000000000e+00 0.0000000000000000e+00 0.0000000000000000e+00
-8.2000000000000006e-01 0.0000000000000000e+00 -1.9461453175234494e-01 0.0000000000000000e+00 0.0000000000000000e+00 0.0000000000000000e+00
-8.1000000000000005e-01 0.0000000000000000e+00 -1.5558275458801207e-01 0.0000000000000000e+00 0.0000000000000000e+00 0.0000000000000000e+00
-8.0000000000000004e-01 0.0000000000000000e+00 -1.0600392913399662e-01 0.0000000000000000e+00 0.0000000000000000e+00 0.0000000000000000e+00
-7.9000000000000004e-01 0.0000000000000000e+00 -4.1445572623910056e-02 0.0000000000000000e+00 0.0000000000000000e+00 0.0000000000000000e+00
-7.8000000000000003e-01 0.0000000000000000e+00 4.2355961151947626e-02 0.0000000000000000e+00 0.0000000000000000e+00 0.0000000000000000e+00
-7.7000000000000002e-01 0.0000000000000000e+00 1.4804191930189758e-01 0.0000000000000000e+00 0.0000000000000000e+00 0.0000000000000000e+00
-7.6000000000000001e-01 0.0000000000000000e+00 2.7589623030893373e-01 0.0000000000000000e+00 0.0000000000000000e+00 0.0000000000000000e+00
-7.5000000000000000e-01 0.0000000000000000e+00 4.2039615653106266e-01 0.0000000000000000e+00 0.0000000000000000e+00 0.0000000000000000e+00
-7.3999999999999999e-01 0.0000000000000000e+00 5.6648264425351236e-01 0.0000000000000000e+00 0.0000000000000000e+00 0.0000000000000000e+00
-7.2999999999999998e-01 0.0000000000000000e+00 6.9538014641312729e-01 0.0000000000000000e+00 0.0000000000000000e+00 0.0000000000000000e+00
-7.1999999999999997e-01 0.0000000000000000e+00 7.9288422592657704e-01 0.0000000000000000e+00 0.0000000000000000e+00 0.0000000000000000e+00
-7.0999999999999996e-01 0.0000000000000000e+00 8.5655951418323417e-01 0.0000000000000000e+00 0.0000000000000000e+00 0.0000000000000000e+00
-6.9999999999999996e-01 0.0000000000000000e+00 8.9190605200949380e-01 0.0000000000000000e+00 0.0000000000000000e+00 0.0000000000000000e+00
-6.8999999999999995e-01 0.0000000000000000e+00 9.0470133445002221e-01 0.0000000000000000e+00 0.0000000000000000e+00 0.0000000000000000e+00
-6.7999999999999994e-01 0.0000000000000000e+00 9.0247054981312491e-01 0.0000000000000000e+00 0.0000000000000000e+00 0.0000000000000000e+00
-6.6999999999999993e-01 0.0000000000000000e+00 8.9102991216439897e-01 0.0000000000000000e+00 0.0000000000000000e+00 0.0000000000000000e+00
-6.5999999999999992e-01 0.0000000000000000e+00 8.7432503846232401e-01 0.0000000000000000e+00 0.0000000000000000e+00 0.0000000000000000e+00
-6.4999999999999991e-01 0.0000000000000000e+00 8.5476009621134685e-01 0.0000000000000000e+00 0.0000000000000000e+00 0.0000000000000000e+00
-6.4000000000000001e-01 0.0000000000000000e+00 8.3388443744867791e-01 0.0000000000000000e+00 0.0000000000000000e+00 0.0000000000000000e+00
-6.3000000000000000e-01 0.0000000000000000e+00 8.1255314812184398e-01 0.0000000000000000e+00 0.0000000000000000e+00 0.0000000000000000e+00
-6.2000000000000000e-01 0.0000000000000000e+00 7.9102843567611392e-01 0.0000000000000000e+00 0.0000000000000000e+00 0.0000000000000000e+00
-6.0999999999999999e-01 0.0000000000000000e+00 7.6925561656110564e-01 0.0000000000000000e+00 0.0000000000000000e+00 0.0000000000000000e+00
-5.9999999999999998e-01 0.0000000000000000e+00 7.4701329804640559e-01 0.0000000000000000e+00 0.0000000000000000e+00 0.0000000000000000e+00
-5.8999999999999997e-01 0.0000000000000000e+00 7.2398428994411446e-01 0.0000000000000000e+00 0.0000000000000000e+00 0.0000000000000000e+00
-5.8000000000000007e-01 0.0000000000000000e+00 6.9979027031944774e-01 0.0000000000000000e+00 0.0000000000000000e+00 0.0000000000000000e+00
-5.7000000000000006e-01 0.0000000000000000e+00 6.7400860717097466e-01 0.0000000000000000e+00 0.0000000000000000e+00 0.0000000000000000e+00
-5.6000000000000005e-01 0.0000000000000000e+00 6.4618107208720676e-01 0.0000000000000000e+00 0.0000000000000000e+00 0.0000000000000000e+00
-5.5000000000000004e-01 0.0000000000000000e+00 6.1581662635229373e-01 0.0000000000000000e+00 0.0000000000000000e+00 0.0000000000000000e+00
-5.4000000000000004e-01 0.0000000000000000e+00 5.8238628779237422e-01 0.0000000000000000e+00 0.0000000000000000e+00 0.0000000000000000e+00
-5.3000000000000003e-01 0.0000000000000000e+00 5.4530644153718844e-01 0.0000000000000000e+00 0.0000000000000000e+00 0.0000000000000000e+00
-5.2000000000000002e-01 0.0000000000000000e+00 5.0390563248211340e-01 0.0000000000000000e+00 0.0000000000000000e+00 0.0000000000000000e+00
-5.1000000000000001e-01 0.0000000000000000e+00 4.5736746108647713e-01 0.0000000000000000e+00 0.0000000000000000e+00 0.0000000000000000e+00
-5.0000000000000000e-01 0.0000000000000000e+00 4.0463821889221840e-01 0.0000000000000000e+00 0.0000000000000000e+00 0.0000000000000000e+00
-4.8999999999999999e-01 0.0000000000000000e+00 3.4428243943965797e-01 0.0000000000000000e+00 0.0000000000000000e+00 0.0000000000000000e+00
-4.7999999999999998e-01 0.0000000000000000e+00 2.7426268721210562e-01 0.0000000000000000e+00 0.0000000000000000e+00 0.0000000000000000e+00
-4.6999999999999997e-01 0.0000000000000000e+00 1.9161289928107231e-01 0.0000000000000000e+00 0.0000000000000000e+00 0.0000000000000000e+00
-4.5999999999999996e-01 0.0000000000000000e+00 9.1968483257354794e-02 0.0000000000000000e+00 0.0000000000000000e+00 0.0000000000000000e+00
-4.4999999999999996e-01 0.0000000000000000e+00 -3.1081838895952382e-02 0.0000000000000000e+00 0.0000000000000000e+00 0.0000000000000000e+00
-4.3999999999999995e-01 0.0000000000000000e+00 -1.8683815035483772e-01 0.0000000000000000e+00 0.0000000000000000e+00 0.0000000000000000e+00
-4.2999999999999994e-01 0.0000000000000000e+00 -3.8848203304309420e-01 0.0000000000000000e+00 0.0000000000000000e+00 0.0000000000000000e+00
-4.2000000000000004e-01 0.0000000000000000e+00 -6.5400052629827010e-01 0.0000000000000000e+00 0.0000000000000000e+00 0.0000000000000000e+00
-4.1000000000000003e-01 0.0000000000000000e+00 -1.0065547681530667e+00 0.0000000000000000e+00 0.0000000000000000e+00 0.0000000000000000e+00
-4.0000000000000002e-01 0.0000000000000000e+00 -1.4731758496382481e+00 0.0000000000000000e+00 0.0000000000000000e+00 0.0000000000000000e+00
-3.9000000000000001e-01 0.0000000000000000e+00 -2.0798388695248988e+00 0.0000000000000000e+00 0.0000000000000000e+00 0.0000000000000000e+00
-3.8000000000000000e-01 0.0000000000000000e+00 -2.8396240341102175e+00 0.0000000000000000e+00 0.0000000000000000e+00 0.0000000000000000e+00
-3.7000000000000000e-01 0.0000000000000000e+00 -3.7335091855082290e+00 0.0000000000000000e+00 0.0000000000000000e+00 0.0000000000000000e+00
-3.5999999999999999e-01 0.0000000000000000e+00 -4.6691239368011876e+00 0.0000000000000000e+00 0.0000000000000000e+00 0.0000000000000000e+00
-3.4999999999999998e-01 0.0000000000000000e+00 -5.4691195630421410e+00 0.0000000000000000e+00 0.0000000000000000e+00 0.0000000000000000e+00
-3.3999999999999997e-01 0.0000000000000000e+00 -5.9894834707492643e+00 0.0000000000000000e+00 0.0000000000000000e+00 0.0000000000000000e+00
-3.2999999999999996e-01 0.0000000000000000e+00 -6.2395672312297741e+00 0.0000000000000000e+00 0.0000000000000000e+00 0.0000000000000000e+00
-3.1999999999999995e-01 0.0000000000000000e+00 -6.6189639379510981e+00 0.0000000000000000e+00 0.0000000000000000e+00 0.0000000000000000e+00
-3.0999999999999994e-01 0.0000000000000000e+00 -6.9955072060188650e+00 0.0000000000000000e+00 0.0000000000000000e+00 0.0000000000000000e+00
-2.9999999999999993e-01 0.0000000000000000e+00 -5.2585060119741520e+00 0.0000000000000000e+00 0.0000000000000000e+00 0.0000000000000000e+00
-2.9000000000000004e-01 0.0000000000000000e+00 -8.2974133875861222e-01 0.0000000000000000e+00 0.0000000000000000e+00 0.0000000000000000e+00
-2.8000000000000003e-01 0.0000000000000000e+00 -1.5174772114066553e+00 0.0000000000000000e+00 0.0000000000000000e+00 0.0000000000000000e+00
-2.7000000000000002e-01 0.0000000000000000e+00 -1.1501919160143071e+01 0.0000000000000000e+00 0.0000000000000000e+00 0.0000000000000000e+00
-2.6000000000000001e-01 0.0000000000000000e+00 -8.2517942462146134e+00 0.0000000000000000e+00 0.0000000000000000e+00 0.0000000000000000e+00
-2.5000000000000000e-01 0.0000000000000000e+00 7.4528255387762226e+00 0.0000000000000000e+00 0.0000000000000000e+00 0.0000000000000000e+00
-2.3999999999999999e-01 0.0000000000000000e+00 1.7159914230969132e+01 0.0000000000000000e+00 0.0000000000000000e+00 0.0000000000000000e+00
-2.2999999999999998e-01 0.0000000000000000e+00 1.2115032704006730e+01 0.0000000000000000e+00 0.0000000000000000e+00 0.0000000000000000e+00
-2.1999999999999997e-01 0.0000000000000000e+00 -3.2727362764784815e+00 0.0000000000000000e+00 0.0000000000000000e+00 0.0000000000000000e+00
-2.0999999999999996e-01 0.0000000000000000e+00 -2.8335243682782703e+01 0.0000000000000000e+00 0.0000000000000000e+00 0.0000000000000000e+00
-1.9999999999999996e-01 0.0000000000000000e+00 2.8814608706235072e+00 0.0000000000000000e+00 0.0000000000000000e+00 0.0000000000000000e+00
-1.8999999999999995e-01 0.0000000000000000e+00 4.0394763510822230e+01 0.0000000000000000e+00 0.0000000000000000e+00 0.0000000000000000e+00
-1.7999999999999994e-01 0.0000000000000000e+00 2.3202383771043628e+01 0.0000000000000000e+00 0.0000000000000000e+00 0.0000000000000000e+00
-1.6999999999999993e-01 0.0000000000000000e+00 -1.3619556940022102e+01 0.0000000000000000e+00 0.0000000000000000e+00 0.0000000000000000e+00
-1.6000000000000003e-01 0.0000000000000000e+00 2.0409388569289227e+01 0.0000000000000000e+00 0.0000000000000000e+00 0.0000000000000000e+00
-1.5000000000000002e-01 0.0000000000000000e+00 8.2505242028064547e+00 0.0000000000000000e+00 0.0000000000000000e+00 0.0000000000000000e+00
-1.4000000000000001e-01 0.0000000000000000e+00 -3.5551843777975911e+01 0.0000000000000000e+00 0.0000000000000000e+00 0.0000000000000000e+00
-1.3000000000000000e-01 0.0000000000000000e+00 -3.2437640220133595e+01 0.0000000000000000e+00 0.0000000000000000e+00 0.0000000000000000e+00
-1.2000000000000000e-01 0.0000000000000000e+00 -2.3152201957720855e+01 0.0000000000000000e+00 0.0000000000000000e+00 0.0000000000000000e+00
-1.0999999999999999e-01 0.0000000000000000e+00 -1.4477669290642201e+01 0.0000000000000000e+00 0.0000000000000000e+00 0.0000000000000000e+00
-9.9999999999999978e-02 0.0000000000000000e+00 1.7442880362485147e+00 0.0000000000000000e+00 0.0000000000000000e+00 0.0000000000000000e+00
-8.9999999999999969e-02 0.0000000000000000e+00 3.7800079284478649e+01 0.0000000000000000e+00 0.0000000000000000e+00 0.0000000000000000e+00
-7.9999999999999960e-02 0.0000000000000000e+00 7.2736131315883156e+01 0.0000000000000000e+00 0.0000000000000000e+00 0.0000000000000000e+00
-6.9999999999999951e-02 0.0000000000000000e+00 3.6468225541305429e+01 0.0000000000000000e+00 0.0000000000000000e+00 0.0000000000000000e+00
-5.9999999999999942e-02 0.0000000000000000e+00 1.9173587414731004e+00 0.0000000000000000e+00 0.0000000000000000e+00 0.0000000000000000e+00
-4.9999999999999933e-02 0.0000000000000000e+00 -4.1116064794047809e+01 0.0000000000000000e+00 0.0000000000000000e+00 0.0000000000000000e+00
-4.0000000000000036e-02 0.0000000000000000e+00 -3.7396807507127484e+01 0.0000000000000000e+00 0.0000000000000000e+00 0.0000000000000000e+00
-3.0000000000000027e-02 0.0000000000000000e+00 -2.5942586325993513e+01 0.0000000000000000e+00 0.0000000000000000e+00 0.0000000000000000e+00
-2.0000000000000018e-02 0.0000000000000000e+00 -1.7811529217889642e+01 0.0000000000000000e+00 0.0000000000000000e+00 0.0000000000000000e+00
-1.0000000000000009e-02 0.0000000000000000e+00 -1.2211724652964513e+01 0.0000000000000000e+00 0.0000000000000000e+00 0.0000000000000000e+00
0.0000000000000000e+00 0.0000000000000000e+00 -8.2589515428674947e+00 0.0000000000000000e+00 0.0000000000000000e+00 0.0000000000000000e+00
1.0000000000000009e-02 0.0000000000000000e+00 -5.5153613446771139e+00 0.0000000000000000e+00 0.0000000000000000e+00 0.0000000000000000e+00
2.0000000000000018e-02 0.0000000000000000e+00 -3.6645928922373896e+00 0.0000000000000000e+00 0.0000000000000000e+00 0.0000000000000000e+00
3.0000000000000027e-02 0.0000000000000000e+00 -2.5654211635397353e+00 0.0000000000000000e+00 0.0000000000000000e+00 0.0000000000000000e+00
4.0000000000000036e-02 0.0000000000000000e+00 -2.3871531468644553e+00 0.0000000000000000e+00 0.0000000000000000e+00 0.0000000000000000e+00
5.0000000000000044e-02 0.0000000000000000e+00 -3.0012602283988192e+00 0.0000000000000000e+00 0.0000000000000000e+00 0.0000000000000000e+00
6.0000000000000053e-02 0.0000000000000000e+00 -4.0582748250270564e+00 0.0000000000000000e+00 0.0000000000000000e+00 0.0000000000000000e+00
7.0000000000000062e-02 0.0000000000000000e+00 -5.7140725105621266e+00 0.0000000000000000e+00 0.0000000000000000e+00 0.0000000000000000e+00
8.0000000000000071e-02 0.0000000000000000e+00 -6.8222602274299096e+00 0.0000000000000000e+00 0.0000000000000000e+00 0.0000000000000000e+00
9.0000000000000080e-02 0.0000000000000000e+00 -3.5498699878961855e+00 0.0000000000000000e+00 0.0000000000000000e+00 0.0000000000000000e+00
1.0000000000000009e-01 0.0000000000000000e+00 1.1183355704855920e+01 0.0000000000000000e+00 0.0000000000000000e+00 0.0000000000000000e+00
1.1000000000000010e-01 0.0000000000000000e+00 3.2685187032717231e+01 0.0000000000000000e+00 0.0000000000000000e+00 0.0000000000000000e+00
1.2000000000000011e-01 0.0000000000000000e+00 2.8686363815070532e+01 0.0000000000000000e+00 0.0000000000000000e+00 0.0000000000000000e+00
1.3000000000000012e-01 0.0000000000000000e+00 1.4039162719069672e+01 0.0000000000000000e+00 0.0000000000000000e+00 0.0000000000000000e+00
1.4000000000000012e-01 0.0000000000000000e+00 -6.0720815550156637e-01 0.0000000000000000e+00 0.0000000000000000e+00 0.0000000000000000e+00
1.5000000000000013e-01 0.0000000000000000e+00 -1.4400082038224646e+01 0.0000000000000000e+00 0.0000000000000000e+00 0.0000000000000000e+00
1.5999999999999992e-01 0.0000000000000000e+00 -1.2965782129322660e+01 0.0000000000000000e+00 0.0000000000000000e+00 0.0000000000000000e+00
1.6999999999999993e-01 0.0000000000000000e+00 -1.0175967041937808e+01 0.0000000000000000e+00 0.0000000000000000e+00 0.0000000000000000e+00
1.7999999999999994e-01 0.0000000000000000e+00 -7.8741197393200952e+00 0.0000000000000000e+00 0.0000000000000000e+00 0.0000000000000000e+00
1.8999999999999995e-01 0.0000000000000000e+00 -5.9275149778495972e+00 0.0000000000000000e+00 0.0000000000000000e+00 0.0000000000000000e+00
1.9999999999999996e-01 0.0000000000000000e+00 -4.2732723766099765e+00 0.0000000000000000e+00 0.0000000000000000e+00 0.0000000000000000e+00
2.0999999999999996e-01 0.0000000000000000e+00 -2.9973686609560612e+00 0.0000000000000000e+00 0.0000000000000000e+00 0.0000000000000000e+00
2.1999999999999997e-01 0.0000000000000000e+00 -2.2177949306679614e+00 0.0000000000000000e+00 0.0000000000000000e+00 0.0000000000000000e+00
2.2999999999999998e-01 0.0000000000000000e+00 -1.9313671158631076e+00 0.0000000000000000e+00 0.0000000000000000e+00 0.0000000000000000e+00
2.3999999999999999e-01 0.0000000000000000e+00 -1.9600873317941865e+00 0.0000000000000000e+00 0.0000000000000000e+00 0.0000000000000000e+00
2.5000000000000000e-01 0.0000000000000000e+00 -2.0441462245044422e+00 0.0000000000000000e+00 0.0000000000000000e+00 0.0000000000000000e+00
2.6000000000000001e-01 0.0000000000000000e+00 -1.9953975843736675e+00 0.0000000000000000e+00 0.0000000000000000e+00 0.0000000000000000e+00
2.7000000000000002e-01 0.0000000000000000e+00 -1.7790218623489555e+00 0.0000000000000000e+00 0.0000000000000000e+00 0.0000000000000000e+00
2.8000000000000003e-01 0.0000000000000000e+00 -1.4782556797558917e+00 0.0000000000000000e+00 0.0000000000000000e+00 0.0000000000000000e+00
2.9000000000000004e-01 0.0000000000000000e+00 -1.1972557511222282e+00 0.0000000000000000e+00 0.0000000000000000e+00 0.0000000000000000e+00
3.0000000000000004e-01 0.0000000000000000e+00 -9.8797807204871280e-01 0.0000000000000000e+00 0.0000000000000000e+00 0.0000000000000000e+00
3.1000000000000005e-01 0.0000000000000000e+00 -8.4068978628806368e-01 0.0000000000000000e+00 0.0000000000000000e+00 0.0000000000000000e+00
3.2000000000000006e-01 0.0000000000000000e+00 -7.1786354552239995e-01 0.0000000000000000e+00 0.0000000000000000e+00 0.0000000000000000e+00
3.3000000000000007e-01 0.0000000000000000e+00 -5.8735884756521572e-01 0.0000000000000000e+00 0.0000000000000000e+00 0.0000000000000000e+00
3.4000000000000008e-01 0.0000000000000000e+00 -4.3689296547043466e-01 0.0000000000000000e+00 0.0000000000000000e+00 0.0000000000000000e+00
3.5000000000000009e-01 0.0000000000000000e+00 -2.7431127016861323e-01 0.0000000000000000e+00 0.0000000000000000e+00 0.0000000000000000e+00
3.6000000000000010e-01 0.0000000000000000e+00 -1.2117720755423812e-01 0.0000000000000000e+00 0.0000000000000000e+00 0.0000000000000000e+00
3.7000000000000011e-01 0.0000000000000000e+00 1.8619047269552232e-03 0.0000000000000000e+00 0.0000000000000000e+00 0.0000000000000000e+00
3.8000000000000012e-01 0.0000000000000000e+00 9.3934719755440113e-02 0.0000000000000000e+00 0.0000000000000000e+00 0.0000000000000000e+00
3.9000000000000012e-01 0.0000000000000000e+00 1.8239116744727754e-01 0.0000000000000000e+00 0.0000000000000000e+00 0.0000000000000000e+00
4.0000000000000013e-01 0.0000000000000000e+00 3.0992171720738187e-01 0.0000000000000000e+00 0.0000000000000000e+00 0.0000000000000000e+00
4.0999999999999992e-01 0.0000000000000000e+00 5.0495347199023144e-01 0.0000000000000000e+00 0.0000000000000000e+00 0.0000000000000000e+00
4.1999999999999993e-01 0.0000000000000000e+00 7.5227254205463168e-01 0.0000000000000000e+00 0.0000000000000000e+00 0.0000000000000000e+00
4.2999999999999994e-01 0.0000000000000000e+00 9.8625069124522391e-01 0.0000000000000000e+00 0.0000000000000000e+00 0.0000000000000000e+00
4.3999999999999995e-01 0.0000000000000000e+00 1.1252560223581456e+00 0.0000000000000000e+00 0.0000000000000000e+00 0.0000000000000000e+00
4.4999999999999996e-01 0.0000000000000000e+00 1.1354851560580728e+00 0.0000000000000000e+00 0.0000000000000000e+00 0.0000000000000000e+00
4.5999999999999996e-01 0.0000000000000000e+00 1.0748507286936460e+00 0.0000000000000000e+00 0.0000000000000000e+00 0.0000000000000000e+00
4.6999999999999997e-01 0.0000000000000000e+00 1.0620859914824641e+00 0.0000000000000000e+00 0.0000000000000000e+00 0.0000000000000000e+00
4.7999999999999998e-01 0.0000000000000000e+00 1.1856212658372769e+00 0.0000000000000000e+00 0.0000000000000000e+00 0.0000000000000000e+00
4.8999999999999999e-01 0.0000000000000000e+00 1.4002535825101761e+00 0.0000000000000000e+00 0.0000000000000000e+00 0.0000000000000000e+00
5.0000000000000000e-01 0.0000000000000000e+00 1.4795089260187422e+00 0.0000000000000000e+00 0.0000000000000000e+00 0.0000000000000000e+00
5.1000000000000001e-01 0.0000000000000000e+00 1.3432347604065540e+00 0.0000000000000000e+00 0.0000000000000000e+00 0.0000000000000000e+00
5.2000000000000002e-01 0.0000000000000000e+00 1.2702664428085764e+00 0.0000000000000000e+00 0.0000000000000000e+00 0.0000000000000000e+00
5.3000000000000003e-01 0.0000000000000000e+00 1.3537924737767144e+00 0.0000000000000000e+00 0.0000000000000000e+00 0.0000000000000000e+00
5.4000000000000004e-01 0.0000000000000000e+00 1.3769565750558757e+00 0.0000000000000000e+00 0.0000000000000000e+00 0.0000000000000000e+00
5.5000000000000004e-01 0.0000000000000000e+00 1.2723628051686497e+00 0.0000000000000000e+00 0.0000000000000000e+00 0.0000000000000000e+00
5.6000000000000005e-01 0.0000000000000000e+00 1.2664354644189504e+00 0.0000000000000000e+00 0.0000000000000000e+00 0.0000000000000000e+00
5.7000000000000006e-01 0.0000000000000000e+00 1.6109385057588299e+00 0.0000000000000000e+00 0.0000000000000000e+00 0.0000000000000000e+00
5.8000000000000007e-01 0.0000000000000000e+00 1.9220861050721878e+00 0.0000000000000000e+00 0.0000000000000000e+00 0.0000000000000000e+00
5.9000000000000008e-01 0.0000000000000000e+00 1.5663029305991947e+00 0.0000000000000000e+00 0.0000000000000000e+00 0.0000000000000000e+00
6.0000000000000009e-01 0.0000000000000000e+00 1.1705911255971406e+00 0.0000000000000000e+00 0.0000000000000000e+00 0.0000000000000000e+00
6.1000000000000010e-01 0.0000000000000000e+00 1.5300791478279065e+00 0.0000000000000000e+00 0.0000000000000000e+00 0.0000000000000000e+00
6.2000000000000011e-01 0.0000000000000000e+00 1.6095086404910515e+00 0.0000000000000000e+00 0.0000000000000000e+00 0.0000000000000000e+00
6.3000000000000012e-01 0.0000000000000000e+00 8.0233351212235571e-01 0.0000000000000000e+00 0.0000000000000000e+00 0.0000000000000000e+00
6.4000000000000012e-01 0.0000000000000000e+00 2.2450454194425382e+00 0.0000000000000000e+00 0.0000000000000000e+00 0.0000000000000000e+00
6.5000000000000013e-01 0.0000000000000000e+00 4.1119437728907000e+00 0.0000000000000000e+00 0.0000000000000000e+00 0.0000000000000000e+00
6.6000000000000014e-01 0.0000000000000000e+00 -1.4936947218603655e-01 0.0000000000000000e+00 0.0000000000000000e+00 0.0000000000000000e+00
6.6999999999999993e-01 0.0000000000000000e+00 -2.1743742849473229e+00 0.0000000000000000e+00 0.0000000000000000e+00 0.0000000000000000e+00
6.7999999999999994e-01 0.0000000000000000e+00 -1.2740745471585138e+00 0.0000000000000000e+00 0.0000000000000000e+00 0.0000000000000000e+00
6.8999999999999995e-01 0.0000000000000000e+00 -3.3009691212203573e-01 0.0000000000000000e+00 0.0000000000000000e+00 0.0000000000000000e+00
6.9999999999999996e-01 0.0000000000000000e+00 2.0124877547202261e-01 0.0000000000000000e+00 0.0000000000000000e+00 0.0000000000000000e+00
7.0999999999999996e-01 0.0000000000000000e+00 5.2070029453641042e-01 0.0000000000000000e+00 0.0000000000000000e+00 0.0000000000000000e+00
7.1999999999999997e-01 0.0000000000000000e+00 3.9187991315503096e-01 0.0000000000000000e+00 0.0000000000000000e+00 0.0000000000000000e+00
7.2999999999999998e-01 0.0000000000000000e+00 1.8133735869807435e-01 0.0000000000000000e+00 0.0000000000000000e+00 0.0000000000000000e+00
7.3999999999999999e-01 0.0000000000000000e+00 -6.8002837628686735e-03 0.0000000000000000e+00 0.0000000000000000e+00 0.0000000000000000e+00
7.5000000000000000e-01 0.0000000000000000e+00 2.2969043291408836e-01 0.0000000000000000e+00 0.0000000000000000e+00 0.0000000000000000e+00
7.6000000000000001e-01 0.0000000000000000e+00 7.2314611367932691e-01 0.0000000000000000e+00 0.0000000000000000e+00 0.0000000000000000e+00
7.7000000000000002e-01 0.0000000000000000e+00 -8.4233065026840037e-01 0.0000000000000000e+00 0.0000000000000000e+00 0.0000000000000000e+00
7.8000000000000003e-01 0.0000000000000000e+00 -7.4249303207096495e-01 0.0000000000000000e+00 0.0000000000000000e+00 0.0000000000000000e+00
7.9000000000000004e-01 0.0000000000000000e+00 -6.1671723963801284e-01 0.0000000000000000e+00 0.0000000000000000e+00 0.0000000000000000e+00
8.0000000000000004e-01 0.0000000000000000e+00 9.3712041432325120e-03 0.0000000000000000e+00 0.0000000000000000e+00 0.0000000000000000e+00
8.1000000000000005e-01 0.0000000000000000e+00 1.2220779308767298e+00 0.0000000000000000e+00 0.0000000000000000e+00 0.0000000000000000e+00
8.2000000000000006e-01 0.0000000000000000e+00 -5.4414101906172796e-02 0.0000000000000000e+00 0.0000000000000000e+00 0.0000000000000000e+00
8.3000000000000007e-01 0.0000000000000000e+00 -2.7278846484783875e-01 0.0000000000000000e+00 0.0000000000000000e+00 0.0000000000000000e+00
8.4000000000000008e-01 0.0000000000000000e+00 4.0448473072433350e-01 0.0000000000000000e+00 0.0000000000000000e+00 0.0000000000000000e+00
8.5000000000000009e-01 0.0000000000000000e+00 2.5276557789266643e-02 0.0000000000000000e+00 0.0000000000000000e+00 0.0000000000000000e+00
8.6000000000000010e-01 0.0000000000000000e+00 -5.2983274158041094e-01 0.0000000000000000e+00 0.0000000000000000e+00 0.0000000000000000e+00
8.7000000000000011e-01 0.0000000000000000e+00 -1.9081409004151534e-01 0.0000000000000000e+00 0.0000000000000000e+00 0.0000000000000000e+00
8.8000000000000012e-01 0.0000000000000000e+00 3.4396746921244720e-01 0.0000000000000000e+00 0.0000000000000000e+00 0.0000000000000000e+00
8.9000000000000012e-01 0.0000000000000000e+00 -3.5507325969774545e-01 0.0000000000000000e+00 0.0000000000000000e+00 0.0000000000000000e+00
9.0000000000000013e-01 0.0000000000000000e+00 -5.1686663332879612e-01 0.0000000000000000e+00 0.0000000000000000e+00 0.0000000000000000e+00
9.1000000000000014e-01 0.0000000000000000e+00 -7.6610339606907873e-01 0.0000000000000000e+00 0.0000000000000000e+00 0.0000000000000000e+00
9.1999999999999993e-01 0.0000000000000000e+00 7.0115108012100502e-01 0.0000000000000000e+00 0.0000000000000000e+00 0.0000000000000000e+00
9.2999999999999994e-01 0.0000000000000000e+00 -5.9040895699778251e-01 0.0000000000000000e+00 0.0000000000000000e+00 0.0000000000000000e+00
9.3999999999999995e-01 0.0000000000000000e+00 -5.7529588263471321e-01 0.0000000000000000e+00 0.0000000000000000e+00 0.0000000000000000e+00
9.4999999999999996e-01 0.0000000000000000e+00 -5.3115477296903812e-01 0.0000000000000000e+00 0.0000000000000000e+00 0.0000000000000000e+00
9.5999999999999996e-01 0.0000000000000000e+00 -5.0047308631040277e-01 0.0000000000000000e+00 0.0000000000000000e+00 0.0000000000000000e+00
9.6999999999999997e-01 0.0000000000000000e+00 -5.1084368734465579e-01 0.0000000000000000e+00 0.0000000000000000e+00 0.0000000000000000e+00
9.7999999999999998e-01 0.0000000000000000e+00 -5.5790840136330067e-01 0.0000000000000000e+00 0.0000000000000000e+00 0.0000000000000000e+00
9.8999999999999999e-01 0.0000000000000000e+00 -4.1328765044321514e-01 0.0000000000000000e+00 0.0000000000000000e+00 0.0000000000000000e+00
1.0000000000000000e+00 0.0000000000000000e+00 6.4806710254603606e-01 0.0000000000000000e+00 0.0000000000000000e+00 0.0000000000000000e+00
-1.0000000000000000e+00 9.3654896513889301e-03 9.9811371943145710e-01 7.3422932585383988e-02 0.0000000000000000e+00 2.7009472026907114e-03
-9.8999999999999999e-01 9.3654896513889301e-03 -4.6042227098586797e-01 -3.3841370957741077e-02 6.6007884842404698e-06 -1.2448938363669340e-03
-9.7999999999999998e-01 9.3654896513889301e-03 -5.5523507348139189e-01 -4.0819460227512171e-02 1.4823324180288851e-06 -1.5015908931263666e-03
-9.6999999999999997e-01 9.3654896513889301e-03 -5.4814613637952658e-01 -4.0256778522769453e-02 -2.5528230730967893e-06 -1.4808919980684402e-03
-9.5999999999999996e-01 9.3654896513889301e-03 -4.8857197808567210e-01 -3.5907040584715270e-02 -5.0792968586510821e-06 -1.3208818744934547e-03
-9.4999999999999996e-01 9.3654896513889301e-03 -4.7390388226256330e-01 -3.4755660635232229e-02 -7.1649482020193775e-06 -1.2785270359670314e-03
-9.3999999999999995e-01 9.3654896513889301e-03 -4.2334980601916899e-01 -3.0936976745750012e-02 -1.0490495835449994e-05 -1.1380523476635809e-03
-9.2999999999999994e-01 9.3654896513889301e-03 -4.0453702855160850e-01 -2.9697698834106757e-02 -1.8724953414687379e-06 -1.0924640812875854e-03
-9.2000000000000004e-01 9.3654896513889301e-03 -4.1151569926745618e-01 -3.0272971711891014e-02 4.1738024339030909e-06 -1.1136261571584769e-03
-9.1000000000000003e-01 9.3654896513889301e-03 -4.1879208267787427e-01 -3.0832278270265717e-02 2.9011415577185018e-07 -1.1342008935670501e-03
-9.0000000000000002e-01 9.3654896513889301e-03 -4.1175374594105763e-01 -3.0335370312284643e-02 -1.2608202818000313e-05 -1.1159215615948086e-03
-8.9000000000000001e-01 9.3654896513889301e-03 -3.8838930263789756e-01 -2.8632272537420265e-02 -2.7699462579958740e-05 -1.0532711469497743e-03
-8.8000000000000000e-01 9.3654896513889301e-03 -3.5697823002927093e-01 -2.6334006215844585e-02 -3.7672751060676550e-05 -9.6872677132054741e-04