variables="x","y","tau","u","v","psi"
zone i=101, j=51, f=point
-1.0000000000000000e+00 0.0000000000000000e+00 9.9749498660405445e-01 0.0000000000000000e+00 0.0000000000000000e+00 0.0000000000000000e+00
-9.7999999999999998e-01 0.0000000000000000e+00 6.7518747854377792e-01 0.0000000000000000e+00 0.0000000000000000e+00 0.0000000000000000e+00
-9.5999999999999996e-01 0.0000000000000000e+00 5.8591893747051649e-01 0.0000000000000000e+00 0.0000000000000000e+00 0.0000000000000000e+00
-9.3999999999999995e-01 0.0000000000000000e+00 5.5539800835098951e-01 0.0000000000000000e+00 0.0000000000000000e+00 0.0000000000000000e+00
-9.2000000000000004e-01 0.0000000000000000e+00 5.3564747932547019e-01 0.0000000000000000e+00 0.0000000000000000e+00 0.0000000000000000e+00
-9.0000000000000002e-01 0.0000000000000000e+00 5.1349213686898065e-01 0.0000000000000000e+00 0.0000000000000000e+00 0.0000000000000000e+00
-8.8000000000000000e-01 0.0000000000000000e+00 4.8568225555841704e-01 0.0000000000000000e+00 0.0000000000000000e+00 0.0000000000000000e+00
-8.5999999999999999e-01 0.0000000000000000e+00 4.5407138546387538e-01 0.0000000000000000e+00 0.0000000000000000e+00 0.0000000000000000e+00
-8.3999999999999997e-01 0.0000000000000000e+00 4.2460378883072553e-01 0.0000000000000000e+00 0.0000000000000000e+00 0.0000000000000000e+00
-8.2000000000000006e-01 0.0000000000000000e+00 4.0449855323901507e-01 0.0000000000000000e+00 0.0000000000000000e+00 0.0000000000000000e+00
-8.0000000000000004e-01 0.0000000000000000e+00 3.9879252400166526e-01 0.0000000000000000e+00 0.0000000000000000e+00 0.0000000000000000e+00
-7.8000000000000003e-01 0.0000000000000000e+00 4.0936932729498304e-01 0.0000000000000000e+00 0.0000000000000000e+00 0.0000000000000000e+00
-7.6000000000000001e-01 0.0000000000000000e+00 4.3613866842074117e-01 0.0000000000000000e+00 0.0000000000000000e+00 0.0000000000000000e+00
-7.3999999999999999e-01 0.0000000000000000e+00 4.7831947715786632e-01 0.0000000000000000e+00 0.0000000000000000e+00 0.0000000000000000e+00
-7.1999999999999997e-01 0.0000000000000000e+00 5.3498262694997678e-01 0.0000000000000000e+00 0.0000000000000000e+00 0.0000000000000000e+00
-6.9999999999999996e-01 0.0000000000000000e+00 6.0505248194345973e-01 0.0000000000000000e+00 0.0000000000000000e+00 0.0000000000000000e+00
-6.7999999999999994e-01 0.0000000000000000e+00 6.8711616060740000e-01 0.0000000000000000e+00 0.0000000000000000e+00 0.0000000000000000e+00
-6.5999999999999992e-01 0.0000000000000000e+00 7.7924164495781245e-01 0.0000000000000000e+00 0.0000000000000000e+00 0.0000000000000000e+00
-6.4000000000000001e-01 0.0000000000000000e+00 8.7888611637045821e-01 0.0000000000000000e+00 0.0000000000000000e+00 0.0000000000000000e+00
-6.2000000000000000e-01 0.0000000000000000e+00 9.8291635705843561e-01 0.0000000000000000e+00 0.0000000000000000e+00 0.0000000000000000e+00
-5.9999999999999998e-01 0.0000000000000000e+00 1.0877328366774568e+00 0.0000000000000000e+00 0.0000000000000000e+00 0.0000000000000000e+00
-5.8000000000000007e-01 0.0000000000000000e+00 1.1894698025358239e+00 0.0000000000000000e+00 0.0000000000000000e+00 0.0000000000000000e+00
-5.6000000000000005e-01 0.0000000000000000e+00 1.2842317976776740e+00 0.0000000000000000e+00 0.0000000000000000e+00 0.0000000000000000e+00
-5.4000000000000004e-01 0.0000000000000000e+00 1.3683245135559241e+00 0.0000000000000000e+00 0.0000000000000000e+00 0.0000000000000000e+00
-5.2000000000000002e-01 0.0000000000000000e+00 1.4384455692349383e+00 0.0000000000000000e+00 0.0000000000000000e+00 0.0000000000000000e+00
-5.0000000000000000e-01 0.0000000000000000e+00 1.4918160685101782e+00 0.0000000000000000e+00 0.0000000000000000e+00 0.0000000000000000e+00
-4.7999999999999998e-01 0.0000000000000000e+00 1.5262515490039394e+00 0.0000000000000000e+00 0.0000000000000000e+00 0.0000000000000000e+00
-4.5999999999999996e-01 0.0000000000000000e+00 1.5401860720383054e+00 0.0000000000000000e+00 0.0000000000000000e+00 0.0000000000000000e+00
-4.3999999999999995e-01 0.0000000000000000e+00 1.5326723589432654e+00 0.0000000000000000e+00 0.0000000000000000e+00 0.0000000000000000e+00
-4.2000000000000004e-01 0.0000000000000000e+00 1.5033829075958243e+00 0.0000000000000000e+00 0.0000000000000000e+00 0.0000000000000000e+00
-4.0000000000000002e-01 0.0000000000000000e+00 1.4526322534587208e+00 0.0000000000000000e+00 0.0000000000000000e+00 0.0000000000000000e+00
-3.8000000000000000e-01 0.0000000000000000e+00 1.3814298050039477e+00 0.0000000000000000e+00 0.0000000000000000e+00 0.0000000000000000e+00
-3.5999999999999999e-01 0.0000000000000000e+00 1.2915568925593603e+00 0.0000000000000000e+00 0.0000000000000000e+00 0.0000000000000000e+00
-3.3999999999999997e-01 0.0000000000000000e+00 1.1856423798701126e+00 0.0000000000000000e+00 0.0000000000000000e+00 0.0000000000000000e+00
-3.1999999999999995e-01 0.0000000000000000e+00 1.0671921131161388e+00 0.0000000000000000e+00 0.0000000000000000e+00 0.0000000000000000e+00
-2.9999999999999993e-01 0.0000000000000000e+00 9.4051607019300620e-01 0.0000000000000000e+00 0.0000000000000000e+00 0.0000000000000000e+00
-2.8000000000000003e-01 0.0000000000000000e+00 8.1050413572617075e-01 0.0000000000000000e+00 0.0000000000000000e+00 0.0000000000000000e+00
-2.6000000000000001e-01 0.0000000000000000e+00 6.8223621486624542e-01 0.0000000000000000e+00 0.0000000000000000e+00 0.0000000000000000e+00
-2.3999999999999999e-01 0.0000000000000000e+00 5.6047276846599248e-01 0.0000000000000000e+00 0.0000000000000000e+00 0.0000000000000000e+00
-2.1999999999999997e-01 0.0000000000000000e+00 4.4913573163953313e-01 0.0000000000000000e+00 0.0000000000000000e+00 0.0000000000000000e+00
-1.9999999999999996e-01 0.0000000000000000e+00 3.5092006546717763e-01 0.0000000000000000e+00 0.0000000000000000e+00 0.0000000000000000e+00
-1.7999999999999994e-01 0.0000000000000000e+00 2.6714483989906468e-01 0.0000000000000000e+00 0.0000000000000000e+00 0.0000000000000000e+00
-1.6000000000000003e-01 0.0000000000000000e+00 1.9786811905688209e-01 0.0000000000000000e+00 0.0000000000000000e+00 0.0000000000000000e+00
-1.4000000000000001e-01 0.0000000000000000e+00 1.4219778795919391e-01 0.0000000000000000e+00 0.0000000000000000e+00 0.0000000000000000e+00
-1.2000000000000000e-01 0.0000000000000000e+00 9.8680555231688755e-02 0.0000000000000000e+00 0.0000000000000000e+00 0.0000000000000000e+00
-9.9999999999999978e-02 0.0000000000000000e+00 6.5660396317232417e-02 0.0000000000000000e+00 0.0000000000000000e+00 0.0000000000000000e+00
-7.9999999999999960e-02 0.0000000000000000e+00 4.1544302297341219e-02 0.0000000000000000e+00 0.0000000000000000e+00 0.0000000000000000e+00
-5.9999999999999942e-02 0.0000000000000000e+00 2.4963136375603170e-02 0.0000000000000000e+00 0.0000000000000000e+00 0.0000000000000000e+00
-4.0000000000000036e-02 0.0000000000000000e+00 1.4846982017524277e-02 0.0000000000000000e+00 0.0000000000000000e+00 0.0000000000000000e+00
-2.0000000000000018e-02 0.0000000000000000e+00 1.0444606348175078e-02 0.0000000000000000e+00 0.0000000000000000e+00 0.0000000000000000e+00
0.0000000000000000e+00 0.0000000000000000e+00 1.1313049328142222e-02 0.0000000000000000e+00 0.0000000000000000e+00 0.0000000000000000e+00
2.0000000000000018e-02 0.0000000000000000e+00 1.7294379345691294e-02 0.0000000000000000e+00 0.0000000000000000e+00 0.0000000000000000e+00
4.0000000000000036e-02 0.0000000000000000e+00 2.8487565200661775e-02 0.0000000000000000e+00 0.0000000000000000e+00 0.0000000000000000e+00
6.0000000000000053e-02 0.0000000000000000e+00 4.5216248209154507e-02 0.0000000000000000e+00 0.0000000000000000e+00 0.0000000000000000e+00
8.0000000000000071e-02 0.0000000000000000e+00 6.7988375219305827e-02 0.0000000000000000e+00 0.0000000000000000e+00 0.0000000000000000e+00
1.0000000000000009e-01 0.0000000000000000e+00 9.7441295254980603e-02 0.0000000000000000e+00 0.0000000000000000e+00 0.0000000000000000e+00
1.2000000000000011e-01 0.0000000000000000e+00 1.3426643935355456e-01 0.0000000000000000e+00 0.0000000000000000e+00 0.0000000000000000e+00
1.4000000000000012e-01 0.0000000000000000e+00 1.7911161460963734e-01 0.0000000000000000e+00 0.0000000000000000e+00 0.0000000000000000e+00
1.5999999999999992e-01 0.0000000000000000e+00 2.3246607315328685e-01 0.0000000000000000e+00 0.0000000000000000e+00 0.0000000000000000e+00
1.7999999999999994e-01 0.0000000000000000e+00 2.9454204436604470e-01 0.0000000000000000e+00 0.0000000000000000e+00 0.0000000000000000e+00
1.9999999999999996e-01 0.0000000000000000e+00 3.6517275533340482e-01 0.0000000000000000e+00 0.0000000000000000e+00 0.0000000000000000e+00
2.1999999999999997e-01 0.0000000000000000e+00 4.4374726926124625e-01 0.0000000000000000e+00 0.0000000000000000e+00 0.0000000000000000e+00
2.3999999999999999e-01 0.0000000000000000e+00 5.2919525967780590e-01 0.0000000000000000e+00 0.0000000000000000e+00 0.0000000000000000e+00
2.6000000000000001e-01 0.0000000000000000e+00 6.2002259125179349e-01 0.0000000000000000e+00 0.0000000000000000e+00 0.0000000000000000e+00
2.8000000000000003e-01 0.0000000000000000e+00 7.1438660311063251e-01 0.0000000000000000e+00 0.0000000000000000e+00 0.0000000000000000e+00
3.0000000000000004e-01 0.0000000000000000e+00 8.1019319561557590e-01 0.0000000000000000e+00 0.0000000000000000e+00 0.0000000000000000e+00
3.2000000000000006e-01 0.0000000000000000e+00 9.0519799010531987e-01 0.0000000000000000e+00 0.0000000000000000e+00 0.0000000000000000e+00
3.4000000000000008e-01 0.0000000000000000e+00 9.9709929441807066e-01 0.0000000000000000e+00 0.0000000000000000e+00 0.0000000000000000e+00
3.6000000000000010e-01 0.0000000000000000e+00 1.0836179652841733e+00 0.0000000000000000e+00 0.0000000000000000e+00 0.0000000000000000e+00
3.8000000000000012e-01 0.0000000000000000e+00 1.1625654499348046e+00 0.0000000000000000e+00 0.0000000000000000e+00 0.0000000000000000e+00
4.0000000000000013e-01 0.0000000000000000e+00 1.2319047044677767e+00 0.0000000000000000e+00 0.0000000000000000e+00 0.0000000000000000e+00
4.1999999999999993e-01 0.0000000000000000e+00 1.2898091661464399e+00 0.0000000000000000e+00 0.0000000000000000e+00 0.0000000000000000e+00
4.3999999999999995e-01 0.0000000000000000e+00 1.3347232139466949e+00 0.0000000000000000e+00 0.0000000000000000e+00 0.0000000000000000e+00
4.5999999999999996e-01 0.0000000000000000e+00 1.3654245863853145e+00 0.0000000000000000e+00 0.0000000000000000e+00 0.0000000000000000e+00
4.7999999999999998e-01 0.0000000000000000e+00 1.3810859845888048e+00 0.0000000000000000e+00 0.0000000000000000e+00 0.0000000000000000e+00
5.0000000000000000e-01 0.0000000000000000e+00 1.3813303486750450e+00 0.0000000000000000e+00 0.0000000000000000e+00 0.0000000000000000e+00
5.2000000000000002e-01 0.0000000000000000e+00 1.3662726450063070e+00 0.0000000000000000e+00 0.0000000000000000e+00 0.0000000000000000e+00
5.4000000000000004e-01 0.0000000000000000e+00 1.3365408136164312e+00 0.0000000000000000e+00 0.0000000000000000e+00 0.0000000000000000e+00
5.6000000000000005e-01 0.0000000000000000e+00 1.2932698936575810e+00 0.0000000000000000e+00 0.0000000000000000e+00 0.0000000000000000e+00
5.8000000000000007e-01 0.0000000000000000e+00 1.2380660258521674e+00 0.0000000000000000e+00 0.0000000000000000e+00 0.0000000000000000e+00
6.0000000000000009e-01 0.0000000000000000e+00 1.1729404537748207e+00 0.0000000000000000e+00 0.0000000000000000e+00 0.0000000000000000e+00
6.2000000000000011e-01 0.0000000000000000e+00 1.1002170481261786e+00 0.0000000000000000e+00 0.0000000000000000e+00 0.0000000000000000e+00
6.4000000000000012e-01 0.0000000000000000e+00 1.0224195564990974e+00 0.0000000000000000e+00 0.0000000000000000e+00 0.0000000000000000e+00
6.6000000000000014e-01 0.0000000000000000e+00 9.4214637301445514e-01 0.0000000000000000e+00 0.0000000000000000e+00 0.0000000000000000e+00
6.7999999999999994e-01 0.0000000000000000e+00 8.6194128887660304e-01 0.0000000000000000e+00 0.0000000000000000e+00 0.0000000000000000e+00
6.9999999999999996e-01 0.0000000000000000e+00 7.8416906902309025e-01 0.0000000000000000e+00 0.0000000000000000e+00 0.0000000000000000e+00
7.1999999999999997e-01 0.0000000000000000e+00 7.1090561229158200e-01 0.0000000000000000e+00 0.0000000000000000e+00 0.0000000000000000e+00
7.3999999999999999e-01 0.0000000000000000e+00 6.4385437694802816e-01 0.0000000000000000e+00 0.0000000000000000e+00 0.0000000000000000e+00
7.6000000000000001e-01 0.0000000000000000e+00 5.8430337735927762e-01 0.0000000000000000e+00 0.0000000000000000e+00 0.0000000000000000e+00
7.8000000000000003e-01 0.0000000000000000e+00 5.3313896980159070e-01 0.0000000000000000e+00 0.0000000000000000e+00 0.0000000000000000e+00
8.0000000000000004e-01 0.0000000000000000e+00 4.9093095493024602e-01 0.0000000000000000e+00 0.0000000000000000e+00 0.0000000000000000e+00
8.2000000000000006e-01 0.0000000000000000e+00 4.5809258523638230e-01 0.0000000000000000e+00 0.0000000000000000e+00 0.0000000000000000e+00
8.4000000000000008e-01 0.0000000000000000e+00 4.3508771436922788e-01 0.0000000000000000e+00 0.0000000000000000e+00 0.0000000000000000e+00
8.6000000000000010e-01 0.0000000000000000e+00 4.2258825670782274e-01 0.0000000000000000e+00 0.0000000000000000e+00 0.0000000000000000e+00
8.8000000000000012e-01 0.0000000000000000e+00 4.2137854347454307e-01 0.0000000000000000e+00 0.0000000000000000e+00 0.0000000000000000e+00
9.0000000000000013e-01 0.0000000000000000e+00 4.3177919576730583e-01 0.0000000000000000e+00 0.0000000000000000e+00 0.0000000000000000e+00
9.1999999999999993e-01 0.0000000000000000e+00 4.5272752188424559e-01 0.0000000000000000e+00 0.0000000000000000e+00 0.0000000000000000e+00
9.3999999999999995e-01 0.0000000000000000e+00 4.8124694884460900e-01 0.0000000000000000e+00 0.0000000000000000e+00 0.0000000000000000e+00
9.5999999999999996e-01 0.0000000000000000e+00 5.1255770278977042e-01 0.0000000000000000e+00 0.0000000000000000e+00 0.0000000000000000e+00
9.7999999999999998e-01 0.0000000000000000e+00 5.4433962235866973e-01 0.0000000000000000e+00 0.0000000000000000e+00 0.0000000000000000e+00
1.0000000000000000e+00 0.0000000000000000e+00 6.4806710254603606e-01 0.0000000000000000e+00 0.0000000000000000e+00 0.0000000000000000e+00
-1.0000000000000000e+00 1.8730979302777860e-02 9.9864490595254940e-01 1.4695582414101899e-01 0.0000000000000000e+00 1.0818902066526267e-02
-9.7999999999999998e-01 1.8730979302777860e-02 6.7331568310473999e-01 9.9233915329872205e-02 1.4082000423572757e-05 7.3056104983060567e-03
-9.5999999999999996e-01 1.8730979302777860e-02 5.8342248552170162e-01 8.6049698319708184e-02 1.6361009370969073e-05 6.3349871596902439e-03
-9.3999999999999995e-01 1.8730979302777860e-02 5.5246606190867420e-01 8.1525674228763570e-02 1.5442517052378600e-05 6.0019280660978200e-03
-9.2000000000000004e-01 1.8730979302777860e-02 5.3258114823664571e-01 7.8608967458596982e-02 2.2672640840105712e-05 5.7871998299924877e-03
-9.0000000000000002e-01 1.8730979302777860e-02 5.1067396011720934e-01 7.5366491267429198e-02 4.1797260347654032e-05 5.5484884174279575e-03
-8.8000000000000000e-01 1.8730979302777860e-02 4.8350202740372739e-01 7.1320496637503811e-02 7.1047543437051665e-05 5.2506218992500247e-03
-8.5999999999999999e-01 1.8730979302777860e-02 4.5275528079790672e-01 6.6731736871638345e-02 9.8926903585027244e-05 4.9127969589735860e-03
-8.3999999999999997e-01 1.8730979302777860e-02 4.2402737270190494e-01 6.2449255638355378e-02 1.0467787938754193e-04 4.5975202740552324e-03
-8.2000000000000006e-01 1.8730979302777860e-02 4.0417916673171767e-01 5.9509160360479554e-02 6.9502593247450147e-05 4.3810701737375252e-03
-8.0000000000000004e-01 1.8730979302777860e-02 3.9805831088669041e-01 5.8638827481767422e-02 -1.3488316404419052e-05 4.3169961825561430e-03
-7.8000000000000003e-01 1.8730979302777860e-02 4.0750008545144822e-01 6.0111923245077123e-02 -1.4181731454992002e-04 4.4254456359277159e-03
-7.6000000000000001e-01 1.8730979302777860e-02 4.3238500608661357e-01 6.3913009450252106e-02 -3.1153385470735216e-04 4.7052819720551616e-03
-7.3999999999999999e-01 1.8730979302777860e-02 4.7186131389114744e-01 6.9921926823264077e-02 -5.2047704104555008e-04 5.1476590534975499e-03
-7.1999999999999997e-01 1.8730979302777860e-02 5.2489980475089826e-01 7.7994562067625200e-02 -7.6657380912287232e-04 5.7419672453506519e-03
-6.9999999999999996e-01 1.8730979302777860e-02 5.9033725182016872e-01 8.7966158426230956e-02 -1.0448063925651949e-03 6.4760771391318061e-03
-6.7999999999999994e-01 1.8730979302777860e-02 6.6673013547505044e-01 9.9626517387937041e-02 -1.3449820676302796e-03 7.3345139000061781e-03
-6.5999999999999992e-01 1.8730979302777860e-02 7.5220929413783011e-01 1.1269591883941858e-01 -1.6508638602364971e-03 8.2966845060245594e-03
-6.4000000000000001e-01 1.8730979302777860e-02 8.4441153197492136e-01 1.2681334353111434e-01 -1.9406652404054107e-03 9.3360106849206849e-03
-6.2000000000000000e-01 1.8730979302777860e-02 9.4050583326874126e-01 1.4153990364074820e-01 -2.1887329341509095e-03 1.0420181472531338e-02
-5.9999999999999998e-01 1.8730979302777860e-02 1.0373036520033700e+00 1.5637608966530381e-01 -2.3680696996986228e-03 1.1512422930660999e-02
-5.8000000000000007e-01 1.8730979302777860e-02 1.1314271620061984e+00 1.7078887492507994e-01 -2.4531763926116342e-03 1.2573493583306656e-02
-5.6000000000000005e-01 1.8730979302777860e-02 1.2195015514366592e+00 1.8424326971754051e-01 -2.4226263078655969e-03 1.3564007436533260e-02
-5.4000000000000004e-01 1.8730979302777860e-02 1.2983375721308337e+00 1.9623274130561266e-01 -2.2608929481315841e-03 1.4446673500970958e-02
-5.2000000000000002e-01 1.8730979302777860e-02 1.3650782704950910e+00 2.0630404928858403e-01 -1.9592115026722009e-03 1.5188124174236097e-02
-5.0000000000000000e-01 1.8730979302777860e-02 1.4172965964390056e+00 2.1407410844721117e-01 -1.5155677268258955e-03 1.5760156685228208e-02
-4.7999999999999998e-01 1.8730979302777860e-02 1.4530445114716191e+00 2.1923882284545326e-01 -9.3416385476083612e-04 1.6140383461558900e-02
-4.5999999999999996e-01 1.8730979302777860e-02 1.4708657084991097e+00 2.2157579422715207e-01 -2.2483543680368794e-04 1.6312431521978824e-02
-4.3999999999999995e-01 1.8730979302777860e-02 1.4697909732773857e+00 2.2094399055205294e-01 5.9713442204403690e-04 1.6265918073967333e-02
-4.2000000000000004e-01 1.8730979302777860e-02 1.4493369635260720e+00 2.1728373824263711e-01 1.5105192517846223e-03 1.5996449942943507e-02
-4.0000000000000002e-01 1.8730979302777860e-02 1.4095260515454824e+00 2.1061982044101893e-01 2.4869592547641902e-03 1.5505851666240269e-02
-3.8000000000000000e-01 1.8730979302777860e-02 1.3509372808690170e+00 2.0106911482533762e-01 3.4894239989034228e-03 1.4802727789890021e-02
-3.5999999999999999e-01 1.8730979302777860e-02 1.2747866062145945e+00 1.8885216831731225e-01 4.4710877032701438e-03 1.3903314999720626e-02
-3.3999999999999997e-01 1.8730979302777860e-02 1.1830187984492861e+00 1.7430552484770306e-01 5.3757517339234626e-03 1.2832389692647701e-02
-3.1999999999999995e-01 1.8730979302777860e-02 1.0783755959646344e+00 1.5788890883042078e-01 6.1410846048866163e-03 1.1623796824737213e-02
-2.9999999999999993e-01 1.8730979302777860e-02 9.6439006517110726e-01 1.4017945134612869e-01 6.7055441387237893e-03 1.0320024842280702e-02
-2.8000000000000003e-01 1.8730979302777860e-02 8.4525501355413291e-01 1.2184550951953922e-01 7.0186490965393729e-03 8.9702782618054627e-03
-2.6000000000000001e-01 1.8730979302777860e-02 7.2553440586832596e-01 1.0359674233228414e-01 7.0524105123972222e-03 7.6268022465623012e-03
-2.3999999999999999e-01 1.8730979302777860e-02 6.0973509817663252e-01 8.6115107251211714e-02 6.8100376576504217e-03 6.3398025715893586e-03
-2.1999999999999997e-01 1.8730979302777860e-02 5.0181886929101926e-01 6.9980754181951113e-02 6.3278292385772665e-03 5.1519899293657745e-03
-1.9999999999999996e-01 1.8730979302777860e-02 4.0477998976330370e-01 5.5612353205077639e-02 5.6683198470838031e-03 4.0941868519443307e-03
-1.7999999999999994e-01 1.8730979302777860e-02 3.2040796943157396e-01 4.3238674224322780e-02 4.9065473200007965e-03 3.1832354018884283e-03
-1.6000000000000003e-01 1.8730979302777860e-02 2.4929196993847696e-01 3.2907362363936397e-02 4.1144537633578280e-03 2.4226432178794193e-03
-1.4000000000000001e-01 1.8730979302777860e-02 1.9103523371426775e-01 2.4523587541151727e-02 3.3488264340930181e-03 1.8054289000006185e-03
-1.2000000000000000e-01 1.8730979302777860e-02 1.4458430587443538e-01 1.7902895446930790e-02 2.6457648852674042e-03 1.3180129040801976e-03
-9.9999999999999978e-02 1.8730979302777860e-02 1.0856707369761577e-01 1.2822459831505560e-02 2.0213554502702263e-03 9.4399073993763571e-04
-7.9999999999999960e-02 1.8730979302777860e-02 8.1566429831468917e-02 9.0607771384959169e-03 1.4761111097974277e-03 6.6705529420827835e-04
-5.9999999999999942e-02 1.8730979302777860e-02 6.2302575895610092e-02 6.4229197351063153e-03 1.0004624285447827e-03 4.7285597560660402e-04
-4.0000000000000036e-02 1.8730979302777860e-02 4.9731831841289278e-02 4.7533526034825718e-03 5.7950302399208348e-04 3.4994228099049075e-04
-2.0000000000000018e-02 1.8730979302777860e-02 4.3085365704221994e-02 3.9402162860279078e-03 1.9632175917891595e-04 2.9007910621195335e-04
0.0000000000000000e+00 1.8730979302777860e-02 4.1871905837223562e-02 3.9147607776647839e-03 -1.6597316126382318e-04 2.8820506921039835e-04
2.0000000000000018e-02 1.8730979302777860e-02 4.5861961408321071e-02 4.6484740627890497e-03 -5.2309941150631911e-04 3.4222111262390345e-04
4.0000000000000036e-02 1.8730979302777860e-02 5.5063045701392817e-02 6.1491890571074102e-03 -8.8883723531949573e-04 4.5270389646864367e-04
6.0000000000000053e-02 1.8730979302777860e-02 6.9688601470613745e-02 8.4564253217753616e-03 -1.2742813535483359e-03 6.2256285468065102e-04
8.0000000000000071e-02 1.8730979302777860e-02 9.0118649899707540e-02 1.1635522786568821e-02 -1.6868911748708702e-03 8.5660831924514163e-04
1.0000000000000009e-01 1.8730979302777860e-02 1.1684789167322261e-01 1.5769782453359884e-02 -2.1293151233407414e-03 1.1609729180219882e-03
1.2000000000000011e-01 1.8730979302777860e-02 1.5041736266863331e-01 2.0949894602768412e-02 -2.5981804092971767e-03 1.5423332782911713e-03
1.4000000000000012e-01 1.8730979302777860e-02 1.9132901895166030e-01 2.7260463636398703e-02 -3.0832376399300386e-03 2.0069179843276203e-03
1.5999999999999992e-01 1.8730979302777860e-02 2.3994838278041331e-01 3.4764386955856347e-02 -3.5673435077144006e-03 2.5593575489550862e-03
1.7999999999999994e-01 1.8730979302777860e-02 2.9640691663769081e-01 4.3486953667735626e-02 -4.0276559217093180e-03 3.2015137586607167e-03
1.9999999999999996e-01 1.8730979302777860e-02 3.6052018013891263e-01 5.3402318040491947e-02 -4.4380781858427793e-03 3.9314838481743835e-03
2.1999999999999997e-01 1.8730979302777860e-02 4.3173724020987708e-01 6.4424982026363459e-02 -4.7725381678830683e-03 4.7429734429041207e-03
2.3999999999999999e-01 1.8730979302777860e-02 5.0913049137931521e-01 7.6407925875676741e-02 -5.0083502352184532e-03 5.6251589345794883e-03
2.6000000000000001e-01 1.8730979302777860e-02 5.9142528411703610e-01 8.9147406574292973e-02 -5.1288729337355347e-03 6.5630407426830678e-03
2.8000000000000003e-01 1.8730979302777860e-02 6.7705973114876250e-01 1.0239289835896687e-01 -5.1249601466191773e-03 7.5381751361580252e-03
3.0000000000000004e-01 1.8730979302777860e-02 7.6426032977173020e-01 1.1585980139166048e-01 -4.9951416749477902e-03 8.5296098472471670e-03
3.2000000000000006e-01 1.8730979302777860e-02 8.5111967505434627e-01 1.2924260395777823e-01 -4.7448385550040943e-03 9.5148530738071863e-03
3.4000000000000008e-01 1.8730979302777860e-02 9.3566709047255281e-01 1.4222692050809924e-01 -4.3850815139081060e-03 1.0470759721126575e-02
3.6000000000000010e-01 1.8730979302777860e-02 1.0159288588402482e+00 1.5449980025452978e-01 -3.9311553485154123e-03 1.1374290321747554e-02
3.8000000000000012e-01 1.8730979302777860e-02 1.0899796284699628e+00 1.6575851659132970e-01 -3.4014254132930318e-03 1.2203158113511640e-02
4.0000000000000013e-01 1.8730979302777860e-02 1.1559893216170576e+00 1.7571850143402704e-01 -2.8164172293986965e-03 1.2936413166362255e-02
4.1999999999999993e-01 1.8730979302777860e-02 1.2122703567269193e+00 1.8412115951489622e-01 -2.1980842894301230e-03 1.3555017671537864e-02
4.3999999999999995e-01 1.8730979302777860e-02 1.2573287039144998e+00 1.9074207435152310e-01 -1.5691359859449573e-03 1.4042450065775878e-02
4.5999999999999996e-01 1.8730979302777860e-02 1.2899199187976906e+00 1.9539972469279876e-01 -9.5230029914264479e-04 1.4385346736914471e-02
4.7999999999999998e-01 1.8730979302777860e-02 1.3091085111852314e+00 1.9796438654646878e-01 -3.6944432932377021e-04 1.4574157392026620e-02
5.0000000000000000e-01 1.8730979302777860e-02 1.3143263798842655e+00 1.9836650108608739e-01 1.5945249157864460e-04 1.4603761103543934e-02
5.2000000000000002e-01 1.8730979302777860e-02 1.3054240754680160e+00 1.9660352234017700e-01 6.1740345775721721e-04 1.4473970436798609e-02
5.4000000000000004e-01 1.8730979302777860e-02 1.2827077347813416e+00 1.9274417713111111e-01 9.9147050796129731e-04 1.4189845067138308e-02
5.6000000000000005e-01 1.8730979302777860e-02 1.2469549020128159e+00 1.8692919771308644e-01 1.2736155980915104e-03 1.3761745716804941e-02
5.8000000000000007e-01 1.8730979302777860e-02 1.1994041047937145e+00 1.7936790651405793e-01 1.4612022814078402e-03 1.3205082723303735e-02
6.0000000000000009e-01 1.8730979302777860e-02 1.1417156883303836e+00 1.7033047811372590e-01 1.5570485949858938e-03 1.2539746365470034e-02
6.2000000000000011e-01 1.8730979302777860e-02 1.0759044777246181e+00 1.6013617965701166e-01 1.5690023661644602e-03 1.1789241121565609e-02
6.4000000000000012e-01 1.8730979302777860e-02 1.0042477166903256e+00 1.4913829979396362e-01 1.5090840446852609e-03 1.0979576136368699e-02
6.6000000000000014e-01 1.8730979302777860e-02 9.2917397969395488e-01 1.3770675888800898e-01 1.3923004256963898e-03 1.0137984983014122e-02
6.7999999999999994e-01 1.8730979302777860e-02 8.5314033946744650e-01 1.2620955895457248e-01 1.2352635168080448e-03 9.2915600056701839e-03
6.9999999999999996e-01 1.8730979302777860e-02 7.7850641336567539e-01 1.1499435880996439e-01 1.0547535022795520e-03 8.4658958802077480e-03
7.1999999999999997e-01 1.8730979302777860e-02 7.0741566374923448e-01 1.0437165597310696e-01 8.6635534982705726e-04 7.6838514641695763e-03
7.3999999999999999e-01 1.8730979302777860e-02 6.4169691567995957e-01 9.4601388952781251e-02 6.8328957936730176e-04 6.9645634558543569e-03
7.6000000000000001e-01 1.8730979302777860e-02 5.8280216708954846e-01 8.5885195656942234e-02 5.1555568067888859e-04 6.3228764576575038e-03
7.8000000000000003e-01 1.8730979302777860e-02 5.3179898207641385e-01 7.8366867420713721e-02 3.6950547827619968e-04 5.7693764016563112e-03
8.0000000000000004e-01 1.8730979302777860e-02 4.8943417460819599e-01 7.2143297236671108e-02 2.4794820082925883e-04 5.3111965593882161e-03
8.2000000000000006e-01 1.8730979302777860e-02 4.5627458562615808e-01 6.7286613348851915e-02 1.5084001558164485e-04 4.9536470191946236e-03
8.4000000000000008e-01 1.8730979302777860e-02 4.3289981280268403e-01 6.3873605191280380e-02 7.6496614901913181e-05 4.7023810266771139e-03
8.6000000000000010e-01 1.8730979302777860e-02 4.2005414543406944e-01 6.2008491006229516e-02 2.3017213946701399e-05 4.5650711389683355e-03
8.8000000000000012e-01 1.8730979302777860e-02 4.1856045576287626e-01 6.1809543296584085e-02 -1.0843094954426772e-05 4.5504245892341233e-03
9.0000000000000013e-01 1.8730979302777860e-02 4.2877135699166885e-01 6.3326305209118444e-02 -2.6360726427737643e-05 4.6620887487586853e-03
9.1999999999999993e-01 1.8730979302777860e-02 4.4967669516390230e-01 6.6406241352708451e-02 -2.6833762852211991e-05 4.8888339472115188e-03
9.3999999999999995e-01 1.8730979302777860e-02 4.7836259965292438e-01 7.0615886344081627e-02 -1.8362066078791356e-05 5.1987484209162511e-03
9.5999999999999996e-01 1.8730979302777860e-02 5.1007565516977627e-01 7.5253710407319707e-02 -8.6480052112962188e-06 5.5401854795373686e-03
9.7999999999999998e-01 1.8730979302777860e-02 5.4246531392075859e-01 7.9976003305875565e-02 -1.0620805888520034e-05 5.8878411420302161e-03
1.0000000000000000e+00 1.8730979302777860e-02 9.9864490595254940e-01 1.2118980757481300e-01 -0.0000000000000000e+00 8.9220054208596234e-03
-1.0000000000000000e+00 3.7461958605555720e-02 9.9944446139352072e-01 2.9440197283370378e-01 0.0000000000000000e+00 4.3368108337493196e-02
-9.7999999999999998e-01 3.7461958605555720e-02 6.7179002646385721e-01 1.9838943185575686e-01 5.6559750144865988e-05 2.9254678252270176e-02
-9.5999999999999996e-01 3.7461958605555720e-02 5.8127438912799145e-01 1.7190615764003914e-01 6.5702604203967080e-05 2.5358656613791136e-02
-9.3999999999999995e-01 3.7461958605555720e-02 5.4987861138392380e-01 1.6278574353222458e-01 6.2053583953558872e-05 2.4019345339190284e-02
-9.2000000000000004e-01 3.7461958605555720e-02 5.2985415460013496e-01 1.5692706868756129e-01 9.0789282159868144e-05 2.3157450234235301e-02
-9.0000000000000002e-01 3.7461958605555720e-02 5.0818847040316883e-01 1.5047260262779075e-01 1.6673410115577230e-04 2.2203612425857208e-02
-8.8000000000000000e-01 3.7461958605555720e-02 4.8164632711328403e-01 1.4246708748218301e-01 2.8286588258329305e-04 2.1016978867494387e-02
-8.5999999999999999e-01 3.7461958605555720e-02 4.5175537316226944e-01 1.3340844771335181e-01 3.9376163234988249e-04 1.9672695567265558e-02
-8.3999999999999997e-01 3.7461958605555720e-02 4.2376108431081577e-01 1.2494470960191190e-01 4.1731114569916255e-04 1.8417419468508153e-02
-8.2000000000000006e-01 3.7461958605555720e-02 4.0416760974972787e-01 1.1909716019601849e-01 2.7891994200153405e-04 1.7552901822454545e-02
-8.0000000000000004e-01 3.7461958605555720e-02 3.9763324223437768e-01 1.1729389667074855e-01 -4.8928409154050081e-05 1.7291651929843981e-02
-7.8000000000000003e-01 3.7461958605555720e-02 4.0594484437860384e-01 1.2007559011343980e-01 -5.5627697112360110e-04 1.7713872302783016e-02
-7.6000000000000001e-01 3.7461958605555720e-02 4.2895520416471955e-01 1.2740713990891062e-01 -1.2268133191265336e-03 1.8814698982302584e-02