variables="x","y","tau","u","v","psi"
zone i=201, j=101, f=point
-1.0000000000000000e+00 0.0000000000000000e+00 1.0000000000000000e+00 0.0000000000000000e+00 0.0000000000000000e+00 0.0000000000000000e+00
-9.8999999999999999e-01 0.0000000000000000e+00 9.9999959173110908e-01 0.0000000000000000e+00 0.0000000000000000e+00 0.0000000000000000e+00
-9.7999999999999998e-01 0.0000000000000000e+00 9.9999926144366891e-01 0.0000000000000000e+00 0.0000000000000000e+00 0.0000000000000000e+00
-9.6999999999999997e-01 0.0000000000000000e+00 9.9999826364438160e-01 0.0000000000000000e+00 0.0000000000000000e+00 0.0000000000000000e+00
-9.5999999999999996e-01 0.0000000000000000e+00 9.9999646275502585e-01 0.0000000000000000e+00 0.0000000000000000e+00 0.0000000000000000e+00
-9.4999999999999996e-01 0.0000000000000000e+00 9.9999368518309084e-01 0.0000000000000000e+00 0.0000000000000000e+00 0.0000000000000000e+00
-9.3999999999999995e-01 0.0000000000000000e+00 9.9998975337170259e-01 0.0000000000000000e+00 0.0000000000000000e+00 0.0000000000000000e+00
-9.2999999999999994e-01 0.0000000000000000e+00 9.9998448625416470e-01 0.0000000000000000e+00 0.0000000000000000e+00 0.0000000000000000e+00
-9.2000000000000004e-01 0.0000000000000000e+00 9.9997769702108996e-01 0.0000000000000000e+00 0.0000000000000000e+00 0.0000000000000000e+00
-9.1000000000000003e-01 0.0000000000000000e+00 9.9996919006715612e-01 0.0000000000000000e+00 0.0000000000000000e+00 0.0000000000000000e+00
-9.0000000000000002e-01 0.0000000000000000e+00 9.9995875560985503e-01 0.0000000000000000e+00 0.0000000000000000e+00 0.0000000000000000e+00
-8.9000000000000001e-01 0.0000000000000000e+00 9.9994615501795603e-01 0.0000000000000000e+00 0.0000000000000000e+00 0.0000000000000000e+00
-8.8000000000000000e-01 0.0000000000000000e+00 9.9993107591545582e-01 0.0000000000000000e+00 0.0000000000000000e+00 0.0000000000000000e+00
-8.7000000000000000e-01 0.0000000000000000e+00 9.9991300755360901e-01 0.0000000000000000e+00 0.0000000000000000e+00 0.0000000000000000e+00
-8.5999999999999999e-01 0.0000000000000000e+00 9.9989094233034359e-01 0.0000000000000000e+00 0.0000000000000000e+00 0.0000000000000000e+00
-8.4999999999999998e-01 0.0000000000000000e+00 9.9986275786282508e-01 0.0000000000000000e+00 0.0000000000000000e+00 0.0000000000000000e+00
-8.3999999999999997e-01 0.0000000000000000e+00 9.9982409577556519e-01 0.0000000000000000e+00 0.0000000000000000e+00 0.0000000000000000e+00
-8.2999999999999996e-01 0.0000000000000000e+00 9.9976655077905063e-01 0.0000000000000000e+00 0.0000000000000000e+00 0.0000000000000000e+00
-8.2000000000000006e-01 0.0000000000000000e+00 9.9967502910514927e-01 0.0000000000000000e+00 0.0000000000000000e+00 0.0000000000000000e+00
-8.1000000000000005e-01 0.0000000000000000e+00 9.9952422438524613e-01 0.0000000000000000e+00 0.0000000000000000e+00 0.0000000000000000e+00
-8.0000000000000004e-01 0.0000000000000000e+00 9.9927427302639138e-01 0.0000000000000000e+00 0.0000000000000000e+00 0.0000000000000000e+00
-7.9000000000000004e-01 0.0000000000000000e+00 9.9886576721106368e-01 0.0000000000000000e+00 0.0000000000000000e+00 0.0000000000000000e+00
-7.8000000000000003e-01 0.0000000000000000e+00 9.9821440452599475e-01 0.0000000000000000e+00 0.0000000000000000e+00 0.0000000000000000e+00
-7.7000000000000002e-01 0.0000000000000000e+00 9.9720563216247116e-01 0.0000000000000000e+00 0.0000000000000000e+00 0.0000000000000000e+00
-7.6000000000000001e-01 0.0000000000000000e+00 9.9568970364291032e-01 0.0000000000000000e+00 0.0000000000000000e+00 0.0000000000000000e+00
-7.5000000000000000e-01 0.0000000000000000e+00 9.9347761531886469e-01 0.0000000000000000e+00 0.0000000000000000e+00 0.0000000000000000e+00
-7.3999999999999999e-01 0.0000000000000000e+00 9.9033843604437610e-01 0.0000000000000000e+00 0.0000000000000000e+00 0.0000000000000000e+00
-7.2999999999999998e-01 0.0000000000000000e+00 9.8599858836834620e-01 0.0000000000000000e+00 0.0000000000000000e+00 0.0000000000000000e+00
-7.1999999999999997e-01 0.0000000000000000e+00 9.8014367614023590e-01 0.0000000000000000e+00 0.0000000000000000e+00 0.0000000000000000e+00
-7.0999999999999996e-01 0.0000000000000000e+00 9.7242346390530565e-01 0.0000000000000000e+00 0.0000000000000000e+00 0.0000000000000000e+00
-6.9999999999999996e-01 0.0000000000000000e+00 9.6246057043208866e-01 0.0000000000000000e+00 0.0000000000000000e+00 0.0000000000000000e+00
-6.8999999999999995e-01 0.0000000000000000e+00 9.4986330824650589e-01 0.0000000000000000e+00 0.0000000000000000e+00 0.0000000000000000e+00
-6.7999999999999994e-01 0.0000000000000000e+00 9.3424284919652512e-01 0.0000000000000000e+00 0.0000000000000000e+00 0.0000000000000000e+00
-6.6999999999999993e-01 0.0000000000000000e+00 9.1523449881911345e-01 0.0000000000000000e+00 0.0000000000000000e+00 0.0000000000000000e+00
-6.5999999999999992e-01 0.0000000000000000e+00 8.9252231853951980e-01 0.0000000000000000e+00 0.0000000000000000e+00 0.0000000000000000e+00
-6.4999999999999991e-01 0.0000000000000000e+00 8.6586568017197663e-01 0.0000000000000000e+00 0.0000000000000000e+00 0.0000000000000000e+00
-6.4000000000000001e-01 0.0000000000000000e+00 8.3512565451520038e-01 0.0000000000000000e+00 0.0000000000000000e+00 0.0000000000000000e+00
-6.3000000000000000e-01 0.0000000000000000e+00 8.0028855517324449e-01 0.0000000000000000e+00 0.0000000000000000e+00 0.0000000000000000e+00
-6.2000000000000000e-01 0.0000000000000000e+00 7.6148364182856743e-01 0.0000000000000000e+00 0.0000000000000000e+00 0.0000000000000000e+00
-6.0999999999999999e-01 0.0000000000000000e+00 7.1899209231659544e-01 0.0000000000000000e+00 0.0000000000000000e+00 0.0000000000000000e+00
-5.9999999999999998e-01 0.0000000000000000e+00 6.7324498453123893e-01 0.0000000000000000e+00 0.0000000000000000e+00 0.0000000000000000e+00
-5.8999999999999997e-01 0.0000000000000000e+00 6.2480918637850114e-01 0.0000000000000000e+00 0.0000000000000000e+00 0.0000000000000000e+00
-5.8000000000000007e-01 0.0000000000000000e+00 5.7436159552967925e-01 0.0000000000000000e+00 0.0000000000000000e+00 0.0000000000000000e+00
-5.7000000000000006e-01 0.0000000000000000e+00 5.2265383078645744e-01 0.0000000000000000e+00 0.0000000000000000e+00 0.0000000000000000e+00
-5.6000000000000005e-01 0.0000000000000000e+00 4.7047090938805813e-01 0.0000000000000000e+00 0.0000000000000000e+00 0.0000000000000000e+00
-5.5000000000000004e-01 0.0000000000000000e+00 4.1858832539418034e-01 0.0000000000000000e+00 0.0000000000000000e+00 0.0000000000000000e+00
-5.4000000000000004e-01 0.0000000000000000e+00 3.6773206931274144e-01 0.0000000000000000e+00 0.0000000000000000e+00 0.0000000000000000e+00
-5.3000000000000003e-01 0.0000000000000000e+00 3.1854548127906845e-01 0.0000000000000000e+00 0.0000000000000000e+00 0.0000000000000000e+00
-5.2000000000000002e-01 0.0000000000000000e+00 2.7156558380088930e-01 0.0000000000000000e+00 0.0000000000000000e+00 0.0000000000000000e+00
-5.1000000000000001e-01 0.0000000000000000e+00 2.2721000168139349e-01 0.0000000000000000e+00 0.0000000000000000e+00 0.0000000000000000e+00
-5.0000000000000000e-01 0.0000000000000000e+00 1.8577408573657955e-01 0.0000000000000000e+00 0.0000000000000000e+00 0.0000000000000000e+00
-4.8999999999999999e-01 0.0000000000000000e+00 1.4743668871599369e-01 0.0000000000000000e+00 0.0000000000000000e+00 0.0000000000000000e+00
-4.7999999999999998e-01 0.0000000000000000e+00 1.1227234634831286e-01 0.0000000000000000e+00 0.0000000000000000e+00 0.0000000000000000e+00
-4.6999999999999997e-01 0.0000000000000000e+00 8.0267407269356439e-02 0.0000000000000000e+00 0.0000000000000000e+00 0.0000000000000000e+00
-4.5999999999999996e-01 0.0000000000000000e+00 5.1337841468417335e-02 0.0000000000000000e+00 0.0000000000000000e+00 0.0000000000000000e+00
-4.4999999999999996e-01 0.0000000000000000e+00 2.5346893617363458e-02 0.0000000000000000e+00 0.0000000000000000e+00 0.0000000000000000e+00
-4.3999999999999995e-01 0.0000000000000000e+00 2.1212880525950982e-03 0.0000000000000000e+00 0.0000000000000000e+00 0.0000000000000000e+00
-4.2999999999999994e-01 0.0000000000000000e+00 -1.8534780341524938e-02 0.0000000000000000e+00 0.0000000000000000e+00 0.0000000000000000e+00
-4.2000000000000004e-01 0.0000000000000000e+00 -3.6828193016453847e-02 0.0000000000000000e+00 0.0000000000000000e+00 0.0000000000000000e+00
-4.1000000000000003e-01 0.0000000000000000e+00 -5.2967987021490089e-02 0.0000000000000000e+00 0.0000000000000000e+00 0.0000000000000000e+00
-4.0000000000000002e-01 0.0000000000000000e+00 -6.7158759616482808e-02 0.0000000000000000e+00 0.0000000000000000e+00 0.0000000000000000e+00
-3.9000000000000001e-01 0.0000000000000000e+00 -7.9596074258898031e-02 0.0000000000000000e+00 0.0000000000000000e+00 0.0000000000000000e+00
-3.8000000000000000e-01 0.0000000000000000e+00 -9.0463500697675892e-02 0.0000000000000000e+00 0.0000000000000000e+00 0.0000000000000000e+00
-3.7000000000000000e-01 0.0000000000000000e+00 -9.9930934361984289e-02 0.0000000000000000e+00 0.0000000000000000e+00 0.0000000000000000e+00
-3.5999999999999999e-01 0.0000000000000000e+00 -1.0815387781985807e-01 0.0000000000000000e+00 0.0000000000000000e+00 0.0000000000000000e+00
-3.4999999999999998e-01 0.0000000000000000e+00 -1.1527341516034599e-01 0.0000000000000000e+00 0.0000000000000000e+00 0.0000000000000000e+00
-3.3999999999999997e-01 0.0000000000000000e+00 -1.2141666241995686e-01 0.0000000000000000e+00 0.0000000000000000e+00 0.0000000000000000e+00
-3.2999999999999996e-01 0.0000000000000000e+00 -1.2669752493598294e-01 0.0000000000000000e+00 0.0000000000000000e+00 0.0000000000000000e+00
-3.1999999999999995e-01 0.0000000000000000e+00 -1.3121763611315213e-01 0.0000000000000000e+00 0.0000000000000000e+00 0.0000000000000000e+00
-3.0999999999999994e-01 0.0000000000000000e+00 -1.3506738410823735e-01 0.0000000000000000e+00 0.0000000000000000e+00 0.0000000000000000e+00
-2.9999999999999993e-01 0.0000000000000000e+00 -1.3832696150347806e-01 0.0000000000000000e+00 0.0000000000000000e+00 0.0000000000000000e+00
-2.9000000000000004e-01 0.0000000000000000e+00 -1.4106739515932132e-01 0.0000000000000000e+00 0.0000000000000000e+00 0.0000000000000000e+00
-2.8000000000000003e-01 0.0000000000000000e+00 -1.4335152990900391e-01 0.0000000000000000e+00 0.0000000000000000e+00 0.0000000000000000e+00
-2.7000000000000002e-01 0.0000000000000000e+00 -1.4523494382710161e-01 0.0000000000000000e+00 0.0000000000000000e+00 0.0000000000000000e+00
-2.6000000000000001e-01 0.0000000000000000e+00 -1.4676679819680960e-01 0.0000000000000000e+00 0.0000000000000000e+00 0.0000000000000000e+00
-2.5000000000000000e-01 0.0000000000000000e+00 -1.4799060877936046e-01 0.0000000000000000e+00 0.0000000000000000e+00 0.0000000000000000e+00
-2.3999999999999999e-01 0.0000000000000000e+00 -1.4894494867137906e-01 0.0000000000000000e+00 0.0000000000000000e+00 0.0000000000000000e+00
-2.2999999999999998e-01 0.0000000000000000e+00 -1.4966408117527069e-01 0.0000000000000000e+00 0.0000000000000000e+00 0.0000000000000000e+00
-2.1999999999999997e-01 0.0000000000000000e+00 -1.5017853576785584e-01 0.0000000000000000e+00 0.0000000000000000e+00 0.0000000000000000e+00
-2.0999999999999996e-01 0.0000000000000000e+00 -1.5051562826577880e-01 0.0000000000000000e+00 0.0000000000000000e+00 0.0000000000000000e+00
-1.9999999999999996e-01 0.0000000000000000e+00 -1.5069993772114998e-01 0.0000000000000000e+00 0.0000000000000000e+00 0.0000000000000000e+00
-1.8999999999999995e-01 0.0000000000000000e+00 -1.5075374604868963e-01 0.0000000000000000e+00 0.0000000000000000e+00 0.0000000000000000e+00
-1.7999999999999994e-01 0.0000000000000000e+00 -1.5069745480912680e-01 0.0000000000000000e+00 0.0000000000000000e+00 0.0000000000000000e+00
-1.6999999999999993e-01 0.0000000000000000e+00 -1.5054998390770974e-01 0.0000000000000000e+00 0.0000000000000000e+00 0.0000000000000000e+00
-1.6000000000000003e-01 0.0000000000000000e+00 -1.5032917443804650e-01 0.0000000000000000e+00 0.0000000000000000e+00 0.0000000000000000e+00
-1.5000000000000002e-01 0.0000000000000000e+00 -1.5005219846881790e-01 0.0000000000000000e+00 0.0000000000000000e+00 0.0000000000000000e+00
-1.4000000000000001e-01 0.0000000000000000e+00 -1.4973601249789553e-01 0.0000000000000000e+00 0.0000000000000000e+00 0.0000000000000000e+00
-1.3000000000000000e-01 0.0000000000000000e+00 -1.4939785350426923e-01 0.0000000000000000e+00 0.0000000000000000e+00 0.0000000000000000e+00
-1.2000000000000000e-01 0.0000000000000000e+00 -1.4905584402660318e-01 0.0000000000000000e+00 0.0000000000000000e+00 0.0000000000000000e+00
-1.0999999999999999e-01 0.0000000000000000e+00 -1.4872973577315690e-01 0.0000000000000000e+00 0.0000000000000000e+00 0.0000000000000000e+00
-9.9999999999999978e-02 0.0000000000000000e+00 -1.4844187513034091e-01 0.0000000000000000e+00 0.0000000000000000e+00 0.0000000000000000e+00
-8.9999999999999969e-02 0.0000000000000000e+00 -1.4821839510587126e-01 0.0000000000000000e+00 0.0000000000000000e+00 0.0000000000000000e+00
-7.9999999999999960e-02 0.0000000000000000e+00 -1.4809062668472170e-01 0.0000000000000000e+00 0.0000000000000000e+00 0.0000000000000000e+00
-6.9999999999999951e-02 0.0000000000000000e+00 -1.4809673213644112e-01 0.0000000000000000e+00 0.0000000000000000e+00 0.0000000000000000e+00
-5.9999999999999942e-02 0.0000000000000000e+00 -1.4828424180439442e-01 0.0000000000000000e+00 0.0000000000000000e+00 0.0000000000000000e+00
-4.9999999999999933e-02 0.0000000000000000e+00 -1.4871445500819255e-01 0.0000000000000000e+00 0.0000000000000000e+00 0.0000000000000000e+00
-4.0000000000000036e-02 0.0000000000000000e+00 -1.4947144033077681e-01 0.0000000000000000e+00 0.0000000000000000e+00 0.0000000000000000e+00
-3.0000000000000027e-02 0.0000000000000000e+00 -1.5067469033117317e-01 0.0000000000000000e+00 0.0000000000000000e+00 0.0000000000000000e+00
-2.0000000000000018e-02 0.0000000000000000e+00 -1.5248845622647819e-01 0.0000000000000000e+00 0.0000000000000000e+00 0.0000000000000000e+00
-1.0000000000000009e-02 0.0000000000000000e+00 -1.5510908753031558e-01 0.0000000000000000e+00 0.0000000000000000e+00 0.0000000000000000e+00
0.0000000000000000e+00 0.0000000000000000e+00 -1.5871538652341949e-01 0.0000000000000000e+00 0.0000000000000000e+00 0.0000000000000000e+00
1.0000000000000009e-02 0.0000000000000000e+00 -1.6339961305181624e-01 0.0000000000000000e+00 0.0000000000000000e+00 0.0000000000000000e+00
2.0000000000000018e-02 0.0000000000000000e+00 -1.6913072304806420e-01 0.0000000000000000e+00 0.0000000000000000e+00 0.0000000000000000e+00
3.0000000000000027e-02 0.0000000000000000e+00 -1.7577723816459959e-01 0.0000000000000000e+00 0.0000000000000000e+00 0.0000000000000000e+00
4.0000000000000036e-02 0.0000000000000000e+00 -1.8316201284687891e-01 0.0000000000000000e+00 0.0000000000000000e+00 0.0000000000000000e+00
5.0000000000000044e-02 0.0000000000000000e+00 -1.9110776088258785e-01 0.0000000000000000e+00 0.0000000000000000e+00 0.0000000000000000e+00
6.0000000000000053e-02 0.0000000000000000e+00 -1.9945905574712494e-01 0.0000000000000000e+00 0.0000000000000000e+00 0.0000000000000000e+00
7.0000000000000062e-02 0.0000000000000000e+00 -2.0808680084406020e-01 0.0000000000000000e+00 0.0000000000000000e+00 0.0000000000000000e+00
8.0000000000000071e-02 0.0000000000000000e+00 -2.1688447688032184e-01 0.0000000000000000e+00 0.0000000000000000e+00 0.0000000000000000e+00
9.0000000000000080e-02 0.0000000000000000e+00 -2.2576260020893113e-01 0.0000000000000000e+00 0.0000000000000000e+00 0.0000000000000000e+00
1.0000000000000009e-01 0.0000000000000000e+00 -2.3464338164521792e-01 0.0000000000000000e+00 0.0000000000000000e+00 0.0000000000000000e+00
1.1000000000000010e-01 0.0000000000000000e+00 -2.4345648363246256e-01 0.0000000000000000e+00 0.0000000000000000e+00 0.0000000000000000e+00
1.2000000000000011e-01 0.0000000000000000e+00 -2.5213578357895194e-01 0.0000000000000000e+00 0.0000000000000000e+00 0.0000000000000000e+00
1.3000000000000012e-01 0.0000000000000000e+00 -2.6061692809899423e-01 0.0000000000000000e+00 0.0000000000000000e+00 0.0000000000000000e+00
1.4000000000000012e-01 0.0000000000000000e+00 -2.6883559100538973e-01 0.0000000000000000e+00 0.0000000000000000e+00 0.0000000000000000e+00
1.5000000000000013e-01 0.0000000000000000e+00 -2.7672619652423774e-01 0.0000000000000000e+00 0.0000000000000000e+00 0.0000000000000000e+00
1.5999999999999992e-01 0.0000000000000000e+00 -2.8422105801713476e-01 0.0000000000000000e+00 0.0000000000000000e+00 0.0000000000000000e+00
1.6999999999999993e-01 0.0000000000000000e+00 -2.9124983856442993e-01 0.0000000000000000e+00 0.0000000000000000e+00 0.0000000000000000e+00
1.7999999999999994e-01 0.0000000000000000e+00 -2.9773928293762170e-01 0.0000000000000000e+00 0.0000000000000000e+00 0.0000000000000000e+00
1.8999999999999995e-01 0.0000000000000000e+00 -3.0361319712111551e-01 0.0000000000000000e+00 0.0000000000000000e+00 0.0000000000000000e+00
1.9999999999999996e-01 0.0000000000000000e+00 -3.0879265217066731e-01 0.0000000000000000e+00 0.0000000000000000e+00 0.0000000000000000e+00
2.0999999999999996e-01 0.0000000000000000e+00 -3.1319640249082681e-01 0.0000000000000000e+00 0.0000000000000000e+00 0.0000000000000000e+00
2.1999999999999997e-01 0.0000000000000000e+00 -3.1674151291517011e-01 0.0000000000000000e+00 0.0000000000000000e+00 0.0000000000000000e+00
2.2999999999999998e-01 0.0000000000000000e+00 -3.1934418552190535e-01 0.0000000000000000e+00 0.0000000000000000e+00 0.0000000000000000e+00
2.3999999999999999e-01 0.0000000000000000e+00 -3.2092077832642002e-01 0.0000000000000000e+00 0.0000000000000000e+00 0.0000000000000000e+00
2.5000000000000000e-01 0.0000000000000000e+00 -3.2138900242737495e-01 0.0000000000000000e+00 0.0000000000000000e+00 0.0000000000000000e+00
2.6000000000000001e-01 0.0000000000000000e+00 -3.2066927688150082e-01 0.0000000000000000e+00 0.0000000000000000e+00 0.0000000000000000e+00
2.7000000000000002e-01 0.0000000000000000e+00 -3.1868621332719249e-01 0.0000000000000000e+00 0.0000000000000000e+00 0.0000000000000000e+00
2.8000000000000003e-01 0.0000000000000000e+00 -3.1537019372463521e-01 0.0000000000000000e+00 0.0000000000000000e+00 0.0000000000000000e+00
2.9000000000000004e-01 0.0000000000000000e+00 -3.1065899610123493e-01 0.0000000000000000e+00 0.0000000000000000e+00 0.0000000000000000e+00
3.0000000000000004e-01 0.0000000000000000e+00 -3.0449941520372237e-01 0.0000000000000000e+00 0.0000000000000000e+00 0.0000000000000000e+00
3.1000000000000005e-01 0.0000000000000000e+00 -2.9684881919836997e-01 0.0000000000000000e+00 0.0000000000000000e+00 0.0000000000000000e+00
3.2000000000000006e-01 0.0000000000000000e+00 -2.8767657927533591e-01 0.0000000000000000e+00 0.0000000000000000e+00 0.0000000000000000e+00
3.3000000000000007e-01 0.0000000000000000e+00 -2.7696530963748800e-01 0.0000000000000000e+00 0.0000000000000000e+00 0.0000000000000000e+00
3.4000000000000008e-01 0.0000000000000000e+00 -2.6471185658910223e-01 0.0000000000000000e+00 0.0000000000000000e+00 0.0000000000000000e+00
3.5000000000000009e-01 0.0000000000000000e+00 -2.5092798607728956e-01 0.0000000000000000e+00 0.0000000000000000e+00 0.0000000000000000e+00
3.6000000000000010e-01 0.0000000000000000e+00 -2.3564072260784191e-01 0.0000000000000000e+00 0.0000000000000000e+00 0.0000000000000000e+00
3.7000000000000011e-01 0.0000000000000000e+00 -2.1889231831130143e-01 0.0000000000000000e+00 0.0000000000000000e+00 0.0000000000000000e+00
3.8000000000000012e-01 0.0000000000000000e+00 -2.0073983768299802e-01 0.0000000000000000e+00 0.0000000000000000e+00 0.0000000000000000e+00
3.9000000000000012e-01 0.0000000000000000e+00 -1.8125435856800035e-01 0.0000000000000000e+00 0.0000000000000000e+00 0.0000000000000000e+00
4.0000000000000013e-01 0.0000000000000000e+00 -1.6051982301693096e-01 0.0000000000000000e+00 0.0000000000000000e+00 0.0000000000000000e+00
4.0999999999999992e-01 0.0000000000000000e+00 -1.3863157122215197e-01 0.0000000000000000e+00 0.0000000000000000e+00 0.0000000000000000e+00
4.1999999999999993e-01 0.0000000000000000e+00 -1.1569461387888612e-01 0.0000000000000000e+00 0.0000000000000000e+00 0.0000000000000000e+00
4.2999999999999994e-01 0.0000000000000000e+00 -9.1821709577863675e-02 0.0000000000000000e+00 0.0000000000000000e+00 0.0000000000000000e+00
4.3999999999999995e-01 0.0000000000000000e+00 -6.7131317780409747e-02 0.0000000000000000e+00 0.0000000000000000e+00 0.0000000000000000e+00
4.4999999999999996e-01 0.0000000000000000e+00 -4.1745502238230217e-02 0.0000000000000000e+00 0.0000000000000000e+00 0.0000000000000000e+00
4.5999999999999996e-01 0.0000000000000000e+00 -1.5787859590883024e-02 0.0000000000000000e+00 0.0000000000000000e+00 0.0000000000000000e+00
4.6999999999999997e-01 0.0000000000000000e+00 1.0618462577226677e-02 0.0000000000000000e+00 0.0000000000000000e+00 0.0000000000000000e+00
4.7999999999999998e-01 0.0000000000000000e+00 3.7352612243603894e-02 0.0000000000000000e+00 0.0000000000000000e+00 0.0000000000000000e+00
4.8999999999999999e-01 0.0000000000000000e+00 6.4297697595303918e-02 0.0000000000000000e+00 0.0000000000000000e+00 0.0000000000000000e+00
5.0000000000000000e-01 0.0000000000000000e+00 9.1342228422532590e-02 0.0000000000000000e+00 0.0000000000000000e+00 0.0000000000000000e+00
5.1000000000000001e-01 0.0000000000000000e+00 1.1838131760996648e-01 0.0000000000000000e+00 0.0000000000000000e+00 0.0000000000000000e+00
5.2000000000000002e-01 0.0000000000000000e+00 1.4531763414493565e-01 0.0000000000000000e+00 0.0000000000000000e+00 0.0000000000000000e+00
5.3000000000000003e-01 0.0000000000000000e+00 1.7206210941437830e-01 0.0000000000000000e+00 0.0000000000000000e+00 0.0000000000000000e+00
5.4000000000000004e-01 0.0000000000000000e+00 1.9853440744986237e-01 0.0000000000000000e+00 0.0000000000000000e+00 0.0000000000000000e+00
5.5000000000000004e-01 0.0000000000000000e+00 2.2466317676717368e-01 0.0000000000000000e+00 0.0000000000000000e+00 0.0000000000000000e+00
5.6000000000000005e-01 0.0000000000000000e+00 2.5038610649391335e-01 0.0000000000000000e+00 0.0000000000000000e+00 0.0000000000000000e+00
5.7000000000000006e-01 0.0000000000000000e+00 2.7564981267252670e-01 0.0000000000000000e+00 0.0000000000000000e+00 0.0000000000000000e+00
5.8000000000000007e-01 0.0000000000000000e+00 3.0040958214487978e-01 0.0000000000000000e+00 0.0000000000000000e+00 0.0000000000000000e+00
5.9000000000000008e-01 0.0000000000000000e+00 3.2462900153053897e-01 0.0000000000000000e+00 0.0000000000000000e+00 0.0000000000000000e+00
6.0000000000000009e-01 0.0000000000000000e+00 3.4827949778136086e-01 0.0000000000000000e+00 0.0000000000000000e+00 0.0000000000000000e+00
6.1000000000000010e-01 0.0000000000000000e+00 3.7133981492699542e-01 0.0000000000000000e+00 0.0000000000000000e+00 0.0000000000000000e+00
6.2000000000000011e-01 0.0000000000000000e+00 3.9379544918668524e-01 0.0000000000000000e+00 0.0000000000000000e+00 0.0000000000000000e+00
6.3000000000000012e-01 0.0000000000000000e+00 4.1563806185201724e-01 0.0000000000000000e+00 0.0000000000000000e+00 0.0000000000000000e+00
6.4000000000000012e-01 0.0000000000000000e+00 4.3686488644754207e-01 0.0000000000000000e+00 0.0000000000000000e+00 0.0000000000000000e+00
6.5000000000000013e-01 0.0000000000000000e+00 4.5747814380701601e-01 0.0000000000000000e+00 0.0000000000000000e+00 0.0000000000000000e+00
6.6000000000000014e-01 0.0000000000000000e+00 4.7748447598552146e-01 0.0000000000000000e+00 0.0000000000000000e+00 0.0000000000000000e+00
6.6999999999999993e-01 0.0000000000000000e+00 4.9689440744054736e-01 0.0000000000000000e+00 0.0000000000000000e+00 0.0000000000000000e+00
6.7999999999999994e-01 0.0000000000000000e+00 5.1572183971161245e-01 0.0000000000000000e+00 0.0000000000000000e+00 0.0000000000000000e+00
6.8999999999999995e-01 0.0000000000000000e+00 5.3398358393193401e-01 0.0000000000000000e+00 0.0000000000000000e+00 0.0000000000000000e+00
6.9999999999999996e-01 0.0000000000000000e+00 5.5169893392442926e-01 0.0000000000000000e+00 0.0000000000000000e+00 0.0000000000000000e+00
7.0999999999999996e-01 0.0000000000000000e+00 5.6888928136056538e-01 0.0000000000000000e+00 0.0000000000000000e+00 0.0000000000000000e+00
7.1999999999999997e-01 0.0000000000000000e+00 5.8557777347874462e-01 0.0000000000000000e+00 0.0000000000000000e+00 0.0000000000000000e+00
7.2999999999999998e-01 0.0000000000000000e+00 6.0178901314741340e-01 0.0000000000000000e+00 0.0000000000000000e+00 0.0000000000000000e+00
7.3999999999999999e-01 0.0000000000000000e+00 6.1754880059853967e-01 0.0000000000000000e+00 0.0000000000000000e+00 0.0000000000000000e+00
7.5000000000000000e-01 0.0000000000000000e+00 6.3288391592756910e-01 0.0000000000000000e+00 0.0000000000000000e+00 0.0000000000000000e+00
7.6000000000000001e-01 0.0000000000000000e+00 6.4782194144827798e-01 0.0000000000000000e+00 0.0000000000000000e+00 0.0000000000000000e+00
7.7000000000000002e-01 0.0000000000000000e+00 6.6239112319743232e-01 0.0000000000000000e+00 0.0000000000000000e+00 0.0000000000000000e+00
7.8000000000000003e-01 0.0000000000000000e+00 6.7662027131487767e-01 0.0000000000000000e+00 0.0000000000000000e+00 0.0000000000000000e+00
7.9000000000000004e-01 0.0000000000000000e+00 6.9053869970651915e-01 0.0000000000000000e+00 0.0000000000000000e+00 0.0000000000000000e+00
8.0000000000000004e-01 0.0000000000000000e+00 7.0417620638005896e-01 0.0000000000000000e+00 0.0000000000000000e+00 0.0000000000000000e+00
8.1000000000000005e-01 0.0000000000000000e+00 7.1756309721688050e-01 0.0000000000000000e+00 0.0000000000000000e+00 0.0000000000000000e+00
8.2000000000000006e-01 0.0000000000000000e+00 7.3073025784894807e-01 0.0000000000000000e+00 0.0000000000000000e+00 0.0000000000000000e+00
8.3000000000000007e-01 0.0000000000000000e+00 7.4370928098364619e-01 0.0000000000000000e+00 0.0000000000000000e+00 0.0000000000000000e+00
8.4000000000000008e-01 0.0000000000000000e+00 7.5653266033490829e-01 0.0000000000000000e+00 0.0000000000000000e+00 0.0000000000000000e+00
8.5000000000000009e-01 0.0000000000000000e+00 7.6923406789573467e-01 0.0000000000000000e+00 0.0000000000000000e+00 0.0000000000000000e+00
8.6000000000000010e-01 0.0000000000000000e+00 7.8184873965930901e-01 0.0000000000000000e+00 0.0000000000000000e+00 0.0000000000000000e+00
8.7000000000000011e-01 0.0000000000000000e+00 7.9441400785505412e-01 0.0000000000000000e+00 0.0000000000000000e+00 0.0000000000000000e+00
8.8000000000000012e-01 0.0000000000000000e+00 8.0697003851542615e-01 0.0000000000000000e+00 0.0000000000000000e+00 0.0000000000000000e+00
8.9000000000000012e-01 0.0000000000000000e+00 8.1956086770421566e-01 0.0000000000000000e+00 0.0000000000000000e+00 0.0000000000000000e+00
9.0000000000000013e-01 0.0000000000000000e+00 8.3223588972354889e-01 0.0000000000000000e+00 0.0000000000000000e+00 0.0000000000000000e+00
9.1000000000000014e-01 0.0000000000000000e+00 8.4505206038837366e-01 0.0000000000000000e+00 0.0000000000000000e+00 0.0000000000000000e+00
9.1999999999999993e-01 0.0000000000000000e+00 8.5807729221834816e-01 0.0000000000000000e+00 0.0000000000000000e+00 0.0000000000000000e+00
9.2999999999999994e-01 0.0000000000000000e+00 8.7139596780141115e-01 0.0000000000000000e+00 0.0000000000000000e+00 0.0000000000000000e+00
9.3999999999999995e-01 0.0000000000000000e+00 8.8511853690109232e-01 0.0000000000000000e+00 0.0000000000000000e+00 0.0000000000000000e+00
9.4999999999999996e-01 0.0000000000000000e+00 8.9939985749133911e-01 0.0000000000000000e+00 0.0000000000000000e+00 0.0000000000000000e+00
9.5999999999999996e-01 0.0000000000000000e+00 9.1447873375776245e-01 0.0000000000000000e+00 0.0000000000000000e+00 0.0000000000000000e+00
9.6999999999999997e-01 0.0000000000000000e+00 9.3077212788871200e-01 0.0000000000000000e+00 0.0000000000000000e+00 0.0000000000000000e+00
9.7999999999999998e-01 0.0000000000000000e+00 9.4904288879362297e-01 0.0000000000000000e+00 0.0000000000000000e+00 0.0000000000000000e+00
9.8999999999999999e-01 0.0000000000000000e+00 9.7048172225392149e-01 0.0000000000000000e+00 0.0000000000000000e+00 0.0000000000000000e+00
1.0000000000000000e+00 0.0000000000000000e+00 1.0000000000000000e+00 0.0000000000000000e+00 0.0000000000000000e+00 0.0000000000000000e+00
-1.0000000000000000e+00 9.3654896513889301e-03 1.0000000000000000e+00 9.3654896513889301e-03 -0.0000000000000000e+00 3.4452033152354978e-04
-9.8999999999999999e-01 9.3654896513889301e-03 9.9999959558543505e-01 7.3564314568958677e-02 -3.7093297342659229e-06 2.7061481019138916e-03
-9.7999999999999998e-01 9.3654896513889301e-03 9.9999926834043629e-01 7.3564290383499376e-02 2.2408036145854257e-11 2.7061472122238946e-03
-9.6999999999999997e-01 9.3654896513889301e-03 9.9999828706506488e-01 7.3564217588900194e-02 1.0605363020916963e-10 2.7061445343906604e-03
-9.5999999999999996e-01 9.3654896513889301e-03 9.9999651868579753e-01 7.3564086303576359e-02 3.0803847089183430e-10 2.7061397049087032e-03
-9.4999999999999996e-01 9.3654896513889301e-03 9.9999379535711197e-01 7.3563883968718213e-02 7.0431573928553004e-10 2.7061322617877347e-03
-9.3999999999999995e-01 9.3654896513889301e-03 9.9998994558166876e-01 7.3563597745377698e-02 1.3884112806214162e-09 2.7061217327322517e-03
-9.2999999999999994e-01 9.3654896513889301e-03 9.9998479472968160e-01 7.3563214550291120e-02 2.4727213466756903e-09 2.7061076364593198e-03
-9.2000000000000004e-01 9.3654896513889301e-03 9.9997816288089336e-01 7.3562720894372963e-02 4.0903287913546882e-09 2.7060894767573810e-03
-9.1000000000000003e-01 9.3654896513889301e-03 9.9996986187146930e-01 7.3562102661789613e-02 6.3983361076794042e-09 2.7060667343592254e-03
-9.0000000000000002e-01 9.3654896513889301e-03 9.9995969011539154e-01 7.3561344721545741e-02 9.5867424840547031e-09 2.7060388526537497e-03
-8.9000000000000001e-01 9.3654896513889301e-03 9.9994741854700053e-01 7.3560429870771840e-02 1.3908117677602542e-08 2.7060051988135716e-03
-8.8000000000000000e-01 9.3654896513889301e-03 9.9993274771578955e-01 7.3559335605211301e-02 1.9773316558281486e-08 2.7059649449936731e-03
-8.7000000000000000e-01 9.3654896513889301e-03 9.9991518889642439e-01 7.3558025162124036e-02 2.8019973367043752e-08 2.7059167388342863e-03