variables="x","y","tau","u","v","psi"
zone i=201, j=101, f=point
-1.0000000000000000e+00 0.0000000000000000e+00 1.0000000000000000e+00 0.0000000000000000e+00 0.0000000000000000e+00 0.0000000000000000e+00
-9.8999999999999999e-01 0.0000000000000000e+00 9.9999966085781034e-01 0.0000000000000000e+00 0.0000000000000000e+00 0.0000000000000000e+00
-9.7999999999999998e-01 0.0000000000000000e+00 9.9999969454629078e-01 0.0000000000000000e+00 0.0000000000000000e+00 0.0000000000000000e+00
-9.6999999999999997e-01 0.0000000000000000e+00 9.9999954712501216e-01 0.0000000000000000e+00 0.0000000000000000e+00 0.0000000000000000e+00
-9.5999999999999996e-01 0.0000000000000000e+00 9.9999924970425746e-01 0.0000000000000000e+00 0.0000000000000000e+00 0.0000000000000000e+00
-9.4999999999999996e-01 0.0000000000000000e+00 9.9999878409463627e-01 0.0000000000000000e+00 0.0000000000000000e+00 0.0000000000000000e+00
-9.3999999999999995e-01 0.0000000000000000e+00 9.9999812430495350e-01 0.0000000000000000e+00 0.0000000000000000e+00 0.0000000000000000e+00
-9.2999999999999994e-01 0.0000000000000000e+00 9.9999724152125613e-01 0.0000000000000000e+00 0.0000000000000000e+00 0.0000000000000000e+00
-9.2000000000000004e-01 0.0000000000000000e+00 9.9999610514742854e-01 0.0000000000000000e+00 0.0000000000000000e+00 0.0000000000000000e+00
-9.1000000000000003e-01 0.0000000000000000e+00 9.9999468287138005e-01 0.0000000000000000e+00 0.0000000000000000e+00 0.0000000000000000e+00
-9.0000000000000002e-01 0.0000000000000000e+00 9.9999294038198128e-01 0.0000000000000000e+00 0.0000000000000000e+00 0.0000000000000000e+00
-8.9000000000000001e-01 0.0000000000000000e+00 9.9999084087919643e-01 0.0000000000000000e+00 0.0000000000000000e+00 0.0000000000000000e+00
-8.8000000000000000e-01 0.0000000000000000e+00 9.9998834431223893e-01 0.0000000000000000e+00 0.0000000000000000e+00 0.0000000000000000e+00
-8.7000000000000000e-01 0.0000000000000000e+00 9.9998540608431896e-01 0.0000000000000000e+00 0.0000000000000000e+00 0.0000000000000000e+00
-8.5999999999999999e-01 0.0000000000000000e+00 9.9998197472014194e-01 0.0000000000000000e+00 0.0000000000000000e+00 0.0000000000000000e+00
-8.4999999999999998e-01 0.0000000000000000e+00 9.9997798773635138e-01 0.0000000000000000e+00 0.0000000000000000e+00 0.0000000000000000e+00
-8.3999999999999997e-01 0.0000000000000000e+00 9.9997336479024246e-01 0.0000000000000000e+00 0.0000000000000000e+00 0.0000000000000000e+00
-8.2999999999999996e-01 0.0000000000000000e+00 9.9996799720840612e-01 0.0000000000000000e+00 0.0000000000000000e+00 0.0000000000000000e+00
-8.2000000000000006e-01 0.0000000000000000e+00 9.9996173326770976e-01 0.0000000000000000e+00 0.0000000000000000e+00 0.0000000000000000e+00
-8.1000000000000005e-01 0.0000000000000000e+00 9.9995435907296959e-01 0.0000000000000000e+00 0.0000000000000000e+00 0.0000000000000000e+00
-8.0000000000000004e-01 0.0000000000000000e+00 9.9994557543312135e-01 0.0000000000000000e+00 0.0000000000000000e+00 0.0000000000000000e+00
-7.9000000000000004e-01 0.0000000000000000e+00 9.9993497165126810e-01 0.0000000000000000e+00 0.0000000000000000e+00 0.0000000000000000e+00
-7.8000000000000003e-01 0.0000000000000000e+00 9.9992199750426636e-01 0.0000000000000000e+00 0.0000000000000000e+00 0.0000000000000000e+00
-7.7000000000000002e-01 0.0000000000000000e+00 9.9990593485049017e-01 0.0000000000000000e+00 0.0000000000000000e+00 0.0000000000000000e+00
-7.6000000000000001e-01 0.0000000000000000e+00 9.9988587027049514e-01 0.0000000000000000e+00 0.0000000000000000e+00 0.0000000000000000e+00
-7.5000000000000000e-01 0.0000000000000000e+00 9.9986066996076928e-01 0.0000000000000000e+00 0.0000000000000000e+00 0.0000000000000000e+00
-7.3999999999999999e-01 0.0000000000000000e+00 9.9982895781914860e-01 0.0000000000000000e+00 0.0000000000000000e+00 0.0000000000000000e+00
-7.2999999999999998e-01 0.0000000000000000e+00 9.9978909734225907e-01 0.0000000000000000e+00 0.0000000000000000e+00 0.0000000000000000e+00
-7.1999999999999997e-01 0.0000000000000000e+00 9.9973917764223319e-01 0.0000000000000000e+00 0.0000000000000000e+00 0.0000000000000000e+00
-7.0999999999999996e-01 0.0000000000000000e+00 9.9967700361680234e-01 0.0000000000000000e+00 0.0000000000000000e+00 0.0000000000000000e+00
-6.9999999999999996e-01 0.0000000000000000e+00 9.9960009008554673e-01 0.0000000000000000e+00 0.0000000000000000e+00 0.0000000000000000e+00
-6.8999999999999995e-01 0.0000000000000000e+00 9.9950565954522863e-01 0.0000000000000000e+00 0.0000000000000000e+00 0.0000000000000000e+00
-6.7999999999999994e-01 0.0000000000000000e+00 9.9939064309281356e-01 0.0000000000000000e+00 0.0000000000000000e+00 0.0000000000000000e+00
-6.6999999999999993e-01 0.0000000000000000e+00 9.9925168401008402e-01 0.0000000000000000e+00 0.0000000000000000e+00 0.0000000000000000e+00
-6.5999999999999992e-01 0.0000000000000000e+00 9.9908514348945188e-01 0.0000000000000000e+00 0.0000000000000000e+00 0.0000000000000000e+00
-6.4999999999999991e-01 0.0000000000000000e+00 9.9888710799599167e-01 0.0000000000000000e+00 0.0000000000000000e+00 0.0000000000000000e+00
-6.4000000000000001e-01 0.0000000000000000e+00 9.9865339779720430e-01 0.0000000000000000e+00 0.0000000000000000e+00 0.0000000000000000e+00
-6.3000000000000000e-01 0.0000000000000000e+00 9.9837957624228690e-01 0.0000000000000000e+00 0.0000000000000000e+00 0.0000000000000000e+00
-6.2000000000000000e-01 0.0000000000000000e+00 9.9806095942968087e-01 0.0000000000000000e+00 0.0000000000000000e+00 0.0000000000000000e+00
-6.0999999999999999e-01 0.0000000000000000e+00 9.9769262596105357e-01 0.0000000000000000e+00 0.0000000000000000e+00 0.0000000000000000e+00
-5.9999999999999998e-01 0.0000000000000000e+00 9.9726942653898654e-01 0.0000000000000000e+00 0.0000000000000000e+00 0.0000000000000000e+00
-5.8999999999999997e-01 0.0000000000000000e+00 9.9678599322013806e-01 0.0000000000000000e+00 0.0000000000000000e+00 0.0000000000000000e+00
-5.8000000000000007e-01 0.0000000000000000e+00 9.9623674818734509e-01 0.0000000000000000e+00 0.0000000000000000e+00 0.0000000000000000e+00
-5.7000000000000006e-01 0.0000000000000000e+00 9.9561591194909926e-01 0.0000000000000000e+00 0.0000000000000000e+00 0.0000000000000000e+00
-5.6000000000000005e-01 0.0000000000000000e+00 9.9491751091509595e-01 0.0000000000000000e+00 0.0000000000000000e+00 0.0000000000000000e+00
-5.5000000000000004e-01 0.0000000000000000e+00 9.9413538433170623e-01 0.0000000000000000e+00 0.0000000000000000e+00 0.0000000000000000e+00
-5.4000000000000004e-01 0.0000000000000000e+00 9.9326319059142054e-01 0.0000000000000000e+00 0.0000000000000000e+00 0.0000000000000000e+00
-5.3000000000000003e-01 0.0000000000000000e+00 9.9229441295581411e-01 0.0000000000000000e+00 0.0000000000000000e+00 0.0000000000000000e+00
-5.2000000000000002e-01 0.0000000000000000e+00 9.9122236475463699e-01 0.0000000000000000e+00 0.0000000000000000e+00 0.0000000000000000e+00
-5.1000000000000001e-01 0.0000000000000000e+00 9.9004019414286504e-01 0.0000000000000000e+00 0.0000000000000000e+00 0.0000000000000000e+00
-5.0000000000000000e-01 0.0000000000000000e+00 9.8874088851471731e-01 0.0000000000000000e+00 0.0000000000000000e+00 0.0000000000000000e+00
-4.8999999999999999e-01 0.0000000000000000e+00 9.8731727868938890e-01 0.0000000000000000e+00 0.0000000000000000e+00 0.0000000000000000e+00
-4.7999999999999998e-01 0.0000000000000000e+00 9.8576204299873083e-01 0.0000000000000000e+00 0.0000000000000000e+00 0.0000000000000000e+00
-4.6999999999999997e-01 0.0000000000000000e+00 9.8406771142007743e-01 0.0000000000000000e+00 0.0000000000000000e+00 0.0000000000000000e+00
-4.5999999999999996e-01 0.0000000000000000e+00 9.8222666991397523e-01 0.0000000000000000e+00 0.0000000000000000e+00 0.0000000000000000e+00
-4.4999999999999996e-01 0.0000000000000000e+00 9.8023116514080266e-01 0.0000000000000000e+00 0.0000000000000000e+00 0.0000000000000000e+00
-4.3999999999999995e-01 0.0000000000000000e+00 9.7807330974829332e-01 0.0000000000000000e+00 0.0000000000000000e+00 0.0000000000000000e+00
-4.2999999999999994e-01 0.0000000000000000e+00 9.7574508844058294e-01 0.0000000000000000e+00 0.0000000000000000e+00 0.0000000000000000e+00
-4.2000000000000004e-01 0.0000000000000000e+00 9.7323836506195860e-01 0.0000000000000000e+00 0.0000000000000000e+00 0.0000000000000000e+00
-4.1000000000000003e-01 0.0000000000000000e+00 9.7054489095411944e-01 0.0000000000000000e+00 0.0000000000000000e+00 0.0000000000000000e+00
-4.0000000000000002e-01 0.0000000000000000e+00 9.6765631487545134e-01 0.0000000000000000e+00 0.0000000000000000e+00 0.0000000000000000e+00
-3.9000000000000001e-01 0.0000000000000000e+00 9.6456419480797706e-01 0.0000000000000000e+00 0.0000000000000000e+00 0.0000000000000000e+00
-3.8000000000000000e-01 0.0000000000000000e+00 9.6126001201869038e-01 0.0000000000000000e+00 0.0000000000000000e+00 0.0000000000000000e+00
-3.7000000000000000e-01 0.0000000000000000e+00 9.5773518779480116e-01 0.0000000000000000e+00 0.0000000000000000e+00 0.0000000000000000e+00
-3.5999999999999999e-01 0.0000000000000000e+00 9.5398110333396435e-01 0.0000000000000000e+00 0.0000000000000000e+00 0.0000000000000000e+00
-3.4999999999999998e-01 0.0000000000000000e+00 9.4998912334644514e-01 0.0000000000000000e+00 0.0000000000000000e+00 0.0000000000000000e+00
-3.3999999999999997e-01 0.0000000000000000e+00 9.4575062401702603e-01 0.0000000000000000e+00 0.0000000000000000e+00 0.0000000000000000e+00
-3.2999999999999996e-01 0.0000000000000000e+00 9.4125702608975670e-01 0.0000000000000000e+00 0.0000000000000000e+00 0.0000000000000000e+00
-3.1999999999999995e-01 0.0000000000000000e+00 9.3649983397732617e-01 0.0000000000000000e+00 0.0000000000000000e+00 0.0000000000000000e+00
-3.0999999999999994e-01 0.0000000000000000e+00 9.3147068197237248e-01 0.0000000000000000e+00 0.0000000000000000e+00 0.0000000000000000e+00
-2.9999999999999993e-01 0.0000000000000000e+00 9.2616138885704258e-01 0.0000000000000000e+00 0.0000000000000000e+00 0.0000000000000000e+00
-2.9000000000000004e-01 0.0000000000000000e+00 9.2056402248530023e-01 0.0000000000000000e+00 0.0000000000000000e+00 0.0000000000000000e+00
-2.8000000000000003e-01 0.0000000000000000e+00 9.1467097626488070e-01 0.0000000000000000e+00 0.0000000000000000e+00 0.0000000000000000e+00
-2.7000000000000002e-01 0.0000000000000000e+00 9.0847505992220978e-01 0.0000000000000000e+00 0.0000000000000000e+00 0.0000000000000000e+00
-2.6000000000000001e-01 0.0000000000000000e+00 9.0196960751919653e-01 0.0000000000000000e+00 0.0000000000000000e+00 0.0000000000000000e+00
-2.5000000000000000e-01 0.0000000000000000e+00 8.9514860646095840e-01 0.0000000000000000e+00 0.0000000000000000e+00 0.0000000000000000e+00
-2.3999999999999999e-01 0.0000000000000000e+00 8.8800685224218057e-01 0.0000000000000000e+00 0.0000000000000000e+00 0.0000000000000000e+00
-2.2999999999999998e-01 0.0000000000000000e+00 8.8054013501901784e-01 0.0000000000000000e+00 0.0000000000000000e+00 0.0000000000000000e+00
-2.1999999999999997e-01 0.0000000000000000e+00 8.7274546588452884e-01 0.0000000000000000e+00 0.0000000000000000e+00 0.0000000000000000e+00
-2.0999999999999996e-01 0.0000000000000000e+00 8.6462135313352173e-01 0.0000000000000000e+00 0.0000000000000000e+00 0.0000000000000000e+00
-1.9999999999999996e-01 0.0000000000000000e+00 8.5616814207188507e-01 0.0000000000000000e+00 0.0000000000000000e+00 0.0000000000000000e+00
-1.8999999999999995e-01 0.0000000000000000e+00 8.4738843638828443e-01 0.0000000000000000e+00 0.0000000000000000e+00 0.0000000000000000e+00
-1.7999999999999994e-01 0.0000000000000000e+00 8.3828762523426736e-01 0.0000000000000000e+00 0.0000000000000000e+00 0.0000000000000000e+00
-1.6999999999999993e-01 0.0000000000000000e+00 8.2887454861861753e-01 0.0000000000000000e+00 0.0000000000000000e+00 0.0000000000000000e+00
-1.6000000000000003e-01 0.0000000000000000e+00 8.1916234543226008e-01 0.0000000000000000e+00 0.0000000000000000e+00 0.0000000000000000e+00
-1.5000000000000002e-01 0.0000000000000000e+00 8.0916954463506063e-01 0.0000000000000000e+00 0.0000000000000000e+00 0.0000000000000000e+00
-1.4000000000000001e-01 0.0000000000000000e+00 7.9892148249762129e-01 0.0000000000000000e+00 0.0000000000000000e+00 0.0000000000000000e+00
-1.3000000000000000e-01 0.0000000000000000e+00 7.8845215927719925e-01 0.0000000000000000e+00 0.0000000000000000e+00 0.0000000000000000e+00
-1.2000000000000000e-01 0.0000000000000000e+00 7.7780668928899532e-01 0.0000000000000000e+00 0.0000000000000000e+00 0.0000000000000000e+00
-1.0999999999999999e-01 0.0000000000000000e+00 7.6704454979466519e-01 0.0000000000000000e+00 0.0000000000000000e+00 0.0000000000000000e+00
-9.9999999999999978e-02 0.0000000000000000e+00 7.5624389296725847e-01 0.0000000000000000e+00 0.0000000000000000e+00 0.0000000000000000e+00
-8.9999999999999969e-02 0.0000000000000000e+00 7.4550723599842839e-01 0.0000000000000000e+00 0.0000000000000000e+00 0.0000000000000000e+00
-7.9999999999999960e-02 0.0000000000000000e+00 7.3496884262787165e-01 0.0000000000000000e+00 0.0000000000000000e+00 0.0000000000000000e+00
-6.9999999999999951e-02 0.0000000000000000e+00 7.2480394508909318e-01 0.0000000000000000e+00 0.0000000000000000e+00 0.0000000000000000e+00
-5.9999999999999942e-02 0.0000000000000000e+00 7.1523938642295304e-01 0.0000000000000000e+00 0.0000000000000000e+00 0.0000000000000000e+00
-4.9999999999999933e-02 0.0000000000000000e+00 7.0656382108279758e-01 0.0000000000000000e+00 0.0000000000000000e+00 0.0000000000000000e+00
-4.0000000000000036e-02 0.0000000000000000e+00 6.9913258208647688e-01 0.0000000000000000e+00 0.0000000000000000e+00 0.0000000000000000e+00
-3.0000000000000027e-02 0.0000000000000000e+00 6.9335721342096646e-01 0.0000000000000000e+00 0.0000000000000000e+00 0.0000000000000000e+00
-2.0000000000000018e-02 0.0000000000000000e+00 6.8966416759893157e-01 0.0000000000000000e+00 0.0000000000000000e+00 0.0000000000000000e+00
-1.0000000000000009e-02 0.0000000000000000e+00 6.8840917951151137e-01 0.0000000000000000e+00 0.0000000000000000e+00 0.0000000000000000e+00
0.0000000000000000e+00 0.0000000000000000e+00 6.8975780363429340e-01 0.0000000000000000e+00 0.0000000000000000e+00 0.0000000000000000e+00
1.0000000000000009e-02 0.0000000000000000e+00 6.9358885425503058e-01 0.0000000000000000e+00 0.0000000000000000e+00 0.0000000000000000e+00
2.0000000000000018e-02 0.0000000000000000e+00 6.9949781851579562e-01 0.0000000000000000e+00 0.0000000000000000e+00 0.0000000000000000e+00
3.0000000000000027e-02 0.0000000000000000e+00 7.0691531740273739e-01 0.0000000000000000e+00 0.0000000000000000e+00 0.0000000000000000e+00
4.0000000000000036e-02 0.0000000000000000e+00 7.1526350775376368e-01 0.0000000000000000e+00 0.0000000000000000e+00 0.0000000000000000e+00
5.0000000000000044e-02 0.0000000000000000e+00 7.2406297124168939e-01 0.0000000000000000e+00 0.0000000000000000e+00 0.0000000000000000e+00
6.0000000000000053e-02 0.0000000000000000e+00 7.3296668060243864e-01 0.0000000000000000e+00 0.0000000000000000e+00 0.0000000000000000e+00
7.0000000000000062e-02 0.0000000000000000e+00 7.4174691529002290e-01 0.0000000000000000e+00 0.0000000000000000e+00 0.0000000000000000e+00
8.0000000000000071e-02 0.0000000000000000e+00 7.5026604940180086e-01 0.0000000000000000e+00 0.0000000000000000e+00 0.0000000000000000e+00
9.0000000000000080e-02 0.0000000000000000e+00 7.5844834608704736e-01 0.0000000000000000e+00 0.0000000000000000e+00 0.0000000000000000e+00
1.0000000000000009e-01 0.0000000000000000e+00 7.6625826899384397e-01 0.0000000000000000e+00 0.0000000000000000e+00 0.0000000000000000e+00
1.1000000000000010e-01 0.0000000000000000e+00 7.7368540256007645e-01 0.0000000000000000e+00 0.0000000000000000e+00 0.0000000000000000e+00
1.2000000000000011e-01 0.0000000000000000e+00 7.8073448405898571e-01 0.0000000000000000e+00 0.0000000000000000e+00 0.0000000000000000e+00
1.3000000000000012e-01 0.0000000000000000e+00 7.8741899429364659e-01 0.0000000000000000e+00 0.0000000000000000e+00 0.0000000000000000e+00
1.4000000000000012e-01 0.0000000000000000e+00 7.9375710843639780e-01 0.0000000000000000e+00 0.0000000000000000e+00 0.0000000000000000e+00
1.5000000000000013e-01 0.0000000000000000e+00 7.9976917552758020e-01 0.0000000000000000e+00 0.0000000000000000e+00 0.0000000000000000e+00
1.5999999999999992e-01 0.0000000000000000e+00 8.0547617619403900e-01 0.0000000000000000e+00 0.0000000000000000e+00 0.0000000000000000e+00
1.6999999999999993e-01 0.0000000000000000e+00 8.1089880202264186e-01 0.0000000000000000e+00 0.0000000000000000e+00 0.0000000000000000e+00
1.7999999999999994e-01 0.0000000000000000e+00 8.1605692786546591e-01 0.0000000000000000e+00 0.0000000000000000e+00 0.0000000000000000e+00
1.8999999999999995e-01 0.0000000000000000e+00 8.2096933094044233e-01 0.0000000000000000e+00 0.0000000000000000e+00 0.0000000000000000e+00
1.9999999999999996e-01 0.0000000000000000e+00 8.2565356348641528e-01 0.0000000000000000e+00 0.0000000000000000e+00 0.0000000000000000e+00
2.0999999999999996e-01 0.0000000000000000e+00 8.3012591951256742e-01 0.0000000000000000e+00 0.0000000000000000e+00 0.0000000000000000e+00
2.1999999999999997e-01 0.0000000000000000e+00 8.3440145776467955e-01 0.0000000000000000e+00 0.0000000000000000e+00 0.0000000000000000e+00
2.2999999999999998e-01 0.0000000000000000e+00 8.3849405684447620e-01 0.0000000000000000e+00 0.0000000000000000e+00 0.0000000000000000e+00
2.3999999999999999e-01 0.0000000000000000e+00 8.4241648727653995e-01 0.0000000000000000e+00 0.0000000000000000e+00 0.0000000000000000e+00
2.5000000000000000e-01 0.0000000000000000e+00 8.4618049101079196e-01 0.0000000000000000e+00 0.0000000000000000e+00 0.0000000000000000e+00
2.6000000000000001e-01 0.0000000000000000e+00 8.4979686250742037e-01 0.0000000000000000e+00 0.0000000000000000e+00 0.0000000000000000e+00
2.7000000000000002e-01 0.0000000000000000e+00 8.5327552790448313e-01 0.0000000000000000e+00 0.0000000000000000e+00 0.0000000000000000e+00
2.8000000000000003e-01 0.0000000000000000e+00 8.5662562027478206e-01 0.0000000000000000e+00 0.0000000000000000e+00 0.0000000000000000e+00
2.9000000000000004e-01 0.0000000000000000e+00 8.5985554993717817e-01 0.0000000000000000e+00 0.0000000000000000e+00 0.0000000000000000e+00
3.0000000000000004e-01 0.0000000000000000e+00 8.6297306939096552e-01 0.0000000000000000e+00 0.0000000000000000e+00 0.0000000000000000e+00
3.1000000000000005e-01 0.0000000000000000e+00 8.6598533281278867e-01 0.0000000000000000e+00 0.0000000000000000e+00 0.0000000000000000e+00
3.2000000000000006e-01 0.0000000000000000e+00 8.6889895028069541e-01 0.0000000000000000e+00 0.0000000000000000e+00 0.0000000000000000e+00
3.3000000000000007e-01 0.0000000000000000e+00 8.7172003701308021e-01 0.0000000000000000e+00 0.0000000000000000e+00 0.0000000000000000e+00
3.4000000000000008e-01 0.0000000000000000e+00 8.7445425797562082e-01 0.0000000000000000e+00 0.0000000000000000e+00 0.0000000000000000e+00
3.5000000000000009e-01 0.0000000000000000e+00 8.7710686823451389e-01 0.0000000000000000e+00 0.0000000000000000e+00 0.0000000000000000e+00
3.6000000000000010e-01 0.0000000000000000e+00 8.7968274943402214e-01 0.0000000000000000e+00 0.0000000000000000e+00 0.0000000000000000e+00
3.7000000000000011e-01 0.0000000000000000e+00 8.8218644276377800e-01 0.0000000000000000e+00 0.0000000000000000e+00 0.0000000000000000e+00
3.8000000000000012e-01 0.0000000000000000e+00 8.8462217875954474e-01 0.0000000000000000e+00 0.0000000000000000e+00 0.0000000000000000e+00
3.9000000000000012e-01 0.0000000000000000e+00 8.8699390425492930e-01 0.0000000000000000e+00 0.0000000000000000e+00 0.0000000000000000e+00
4.0000000000000013e-01 0.0000000000000000e+00 8.8930530677532760e-01 0.0000000000000000e+00 0.0000000000000000e+00 0.0000000000000000e+00
4.0999999999999992e-01 0.0000000000000000e+00 8.9155983663827842e-01 0.0000000000000000e+00 0.0000000000000000e+00 0.0000000000000000e+00
4.1999999999999993e-01 0.0000000000000000e+00 8.9376072699897446e-01 0.0000000000000000e+00 0.0000000000000000e+00 0.0000000000000000e+00
4.2999999999999994e-01 0.0000000000000000e+00 8.9591101205513557e-01 0.0000000000000000e+00 0.0000000000000000e+00 0.0000000000000000e+00
4.3999999999999995e-01 0.0000000000000000e+00 8.9801354360460461e-01 0.0000000000000000e+00 0.0000000000000000e+00 0.0000000000000000e+00
4.4999999999999996e-01 0.0000000000000000e+00 9.0007100612784907e-01 0.0000000000000000e+00 0.0000000000000000e+00 0.0000000000000000e+00
4.5999999999999996e-01 0.0000000000000000e+00 9.0208593055016406e-01 0.0000000000000000e+00 0.0000000000000000e+00 0.0000000000000000e+00
4.6999999999999997e-01 0.0000000000000000e+00 9.0406070682182016e-01 0.0000000000000000e+00 0.0000000000000000e+00 0.0000000000000000e+00
4.7999999999999998e-01 0.0000000000000000e+00 9.0599759544038594e-01 0.0000000000000000e+00 0.0000000000000000e+00 0.0000000000000000e+00
4.8999999999999999e-01 0.0000000000000000e+00 9.0789873802646870e-01 0.0000000000000000e+00 0.0000000000000000e+00 0.0000000000000000e+00
5.0000000000000000e-01 0.0000000000000000e+00 9.0976616705282409e-01 0.0000000000000000e+00 0.0000000000000000e+00 0.0000000000000000e+00
5.1000000000000001e-01 0.0000000000000000e+00 9.1160181481635461e-01 0.0000000000000000e+00 0.0000000000000000e+00 0.0000000000000000e+00
5.2000000000000002e-01 0.0000000000000000e+00 9.1340752173504702e-01 0.0000000000000000e+00 0.0000000000000000e+00 0.0000000000000000e+00
5.3000000000000003e-01 0.0000000000000000e+00 9.1518504404251722e-01 0.0000000000000000e+00 0.0000000000000000e+00 0.0000000000000000e+00
5.4000000000000004e-01 0.0000000000000000e+00 9.1693606094750779e-01 0.0000000000000000e+00 0.0000000000000000e+00 0.0000000000000000e+00
5.5000000000000004e-01 0.0000000000000000e+00 9.1866218131931798e-01 0.0000000000000000e+00 0.0000000000000000e+00 0.0000000000000000e+00
5.6000000000000005e-01 0.0000000000000000e+00 9.2036494995485474e-01 0.0000000000000000e+00 0.0000000000000000e+00 0.0000000000000000e+00
5.7000000000000006e-01 0.0000000000000000e+00 9.2204585347999246e-01 0.0000000000000000e+00 0.0000000000000000e+00 0.0000000000000000e+00
5.8000000000000007e-01 0.0000000000000000e+00 9.2370632593287139e-01 0.0000000000000000e+00 0.0000000000000000e+00 0.0000000000000000e+00
5.9000000000000008e-01 0.0000000000000000e+00 9.2534775407459147e-01 0.0000000000000000e+00 0.0000000000000000e+00 0.0000000000000000e+00
6.0000000000000009e-01 0.0000000000000000e+00 9.2697148247053329e-01 0.0000000000000000e+00 0.0000000000000000e+00 0.0000000000000000e+00
6.1000000000000010e-01 0.0000000000000000e+00 9.2857881838380774e-01 0.0000000000000000e+00 0.0000000000000000e+00 0.0000000000000000e+00
6.2000000000000011e-01 0.0000000000000000e+00 9.3017103652053235e-01 0.0000000000000000e+00 0.0000000000000000e+00 0.0000000000000000e+00
6.3000000000000012e-01 0.0000000000000000e+00 9.3174938366645099e-01 0.0000000000000000e+00 0.0000000000000000e+00 0.0000000000000000e+00
6.4000000000000012e-01 0.0000000000000000e+00 9.3331508325379287e-01 0.0000000000000000e+00 0.0000000000000000e+00 0.0000000000000000e+00
6.5000000000000013e-01 0.0000000000000000e+00 9.3486933989782228e-01 0.0000000000000000e+00 0.0000000000000000e+00 0.0000000000000000e+00
6.6000000000000014e-01 0.0000000000000000e+00 9.3641334394194720e-01 0.0000000000000000e+00 0.0000000000000000e+00 0.0000000000000000e+00
6.6999999999999993e-01 0.0000000000000000e+00 9.3794827605197084e-01 0.0000000000000000e+00 0.0000000000000000e+00 0.0000000000000000e+00
6.7999999999999994e-01 0.0000000000000000e+00 9.3947531189945255e-01 0.0000000000000000e+00 0.0000000000000000e+00 0.0000000000000000e+00
6.8999999999999995e-01 0.0000000000000000e+00 9.4099562697451256e-01 0.0000000000000000e+00 0.0000000000000000e+00 0.0000000000000000e+00
6.9999999999999996e-01 0.0000000000000000e+00 9.4251040156665877e-01 0.0000000000000000e+00 0.0000000000000000e+00 0.0000000000000000e+00
7.0999999999999996e-01 0.0000000000000000e+00 9.4402082594808701e-01 0.0000000000000000e+00 0.0000000000000000e+00 0.0000000000000000e+00
7.1999999999999997e-01 0.0000000000000000e+00 9.4552810578476221e-01 0.0000000000000000e+00 0.0000000000000000e+00 0.0000000000000000e+00
7.2999999999999998e-01 0.0000000000000000e+00 9.4703346778324216e-01 0.0000000000000000e+00 0.0000000000000000e+00 0.0000000000000000e+00
7.3999999999999999e-01 0.0000000000000000e+00 9.4853816554852621e-01 0.0000000000000000e+00 0.0000000000000000e+00 0.0000000000000000e+00
7.5000000000000000e-01 0.0000000000000000e+00 9.5004348557025808e-01 0.0000000000000000e+00 0.0000000000000000e+00 0.0000000000000000e+00
7.6000000000000001e-01 0.0000000000000000e+00 9.5155075315076543e-01 0.0000000000000000e+00 0.0000000000000000e+00 0.0000000000000000e+00
7.7000000000000002e-01 0.0000000000000000e+00 9.5306133790621672e-01 0.0000000000000000e+00 0.0000000000000000e+00 0.0000000000000000e+00
7.8000000000000003e-01 0.0000000000000000e+00 9.5457665814890269e-01 0.0000000000000000e+00 0.0000000000000000e+00 0.0000000000000000e+00
7.9000000000000004e-01 0.0000000000000000e+00 9.5609818288150128e-01 0.0000000000000000e+00 0.0000000000000000e+00 0.0000000000000000e+00
8.0000000000000004e-01 0.0000000000000000e+00 9.5762742909196441e-01 0.0000000000000000e+00 0.0000000000000000e+00 0.0000000000000000e+00
8.1000000000000005e-01 0.0000000000000000e+00 9.5916595012195915e-01 0.0000000000000000e+00 0.0000000000000000e+00 0.0000000000000000e+00
8.2000000000000006e-01 0.0000000000000000e+00 9.6071530729199928e-01 0.0000000000000000e+00 0.0000000000000000e+00 0.0000000000000000e+00
8.3000000000000007e-01 0.0000000000000000e+00 9.6227701008313971e-01 0.0000000000000000e+00 0.0000000000000000e+00 0.0000000000000000e+00
8.4000000000000008e-01 0.0000000000000000e+00 9.6385239662774846e-01 0.0000000000000000e+00 0.0000000000000000e+00 0.0000000000000000e+00
8.5000000000000009e-01 0.0000000000000000e+00 9.6544239883849914e-01 0.0000000000000000e+00 0.0000000000000000e+00 0.0000000000000000e+00
8.6000000000000010e-01 0.0000000000000000e+00 9.6704707927774136e-01 0.0000000000000000e+00 0.0000000000000000e+00 0.0000000000000000e+00
8.7000000000000011e-01 0.0000000000000000e+00 9.6866470366515245e-01 0.0000000000000000e+00 0.0000000000000000e+00 0.0000000000000000e+00
8.8000000000000012e-01 0.0000000000000000e+00 9.7028983944405633e-01 0.0000000000000000e+00 0.0000000000000000e+00 0.0000000000000000e+00
8.9000000000000012e-01 0.0000000000000000e+00 9.7190934741700552e-01 0.0000000000000000e+00 0.0000000000000000e+00 0.0000000000000000e+00
9.0000000000000013e-01 0.0000000000000000e+00 9.7349368886327614e-01 0.0000000000000000e+00 0.0000000000000000e+00 0.0000000000000000e+00
9.1000000000000014e-01 0.0000000000000000e+00 9.7497764838807366e-01 0.0000000000000000e+00 0.0000000000000000e+00 0.0000000000000000e+00
9.1999999999999993e-01 0.0000000000000000e+00 9.7621742960273472e-01 0.0000000000000000e+00 0.0000000000000000e+00 0.0000000000000000e+00
9.2999999999999994e-01 0.0000000000000000e+00 9.7689926268953842e-01 0.0000000000000000e+00 0.0000000000000000e+00 0.0000000000000000e+00
9.3999999999999995e-01 0.0000000000000000e+00 9.7637642609129893e-01 0.0000000000000000e+00 0.0000000000000000e+00 0.0000000000000000e+00
9.4999999999999996e-01 0.0000000000000000e+00 9.7354928734582868e-01 0.0000000000000000e+00 0.0000000000000000e+00 0.0000000000000000e+00
9.5999999999999996e-01 0.0000000000000000e+00 9.6753360259019261e-01 0.0000000000000000e+00 0.0000000000000000e+00 0.0000000000000000e+00
9.6999999999999997e-01 0.0000000000000000e+00 9.6049027789511099e-01 0.0000000000000000e+00 0.0000000000000000e+00 0.0000000000000000e+00
9.7999999999999998e-01 0.0000000000000000e+00 9.6023861036267633e-01 0.0000000000000000e+00 0.0000000000000000e+00 0.0000000000000000e+00
9.8999999999999999e-01 0.0000000000000000e+00 9.7657071204720802e-01 0.0000000000000000e+00 0.0000000000000000e+00 0.0000000000000000e+00
1.0000000000000000e+00 0.0000000000000000e+00 1.0000000000000000e+00 0.0000000000000000e+00 0.0000000000000000e+00 0.0000000000000000e+00
-1.0000000000000000e+00 9.3654896513889301e-03 1.0000000000000000e+00 9.3654896513889301e-03 -0.0000000000000000e+00 3.4452033152354978e-04
-9.8999999999999999e-01 9.3654896513889301e-03 9.9999966399774998e-01 7.3564319627939620e-02 -3.7093315629405887e-06 2.7061482880143366e-03
-9.7999999999999998e-01 9.3654896513889301e-03 9.9999969569816416e-01 7.3564322033077306e-02 1.9266624999148525e-12 2.7061483764900980e-03
-9.6999999999999997e-01 9.3654896513889301e-03 9.9999955103286808e-01 7.3564311289509562e-02 1.6849507877456862e-11 2.7061479812755763e-03
-9.5999999999999996e-01 9.3654896513889301e-03 9.9999925903469800e-01 7.3564289609422739e-02 5.1336285621013646e-11 2.7061471837485935e-03
-9.4999999999999996e-01 9.3654896513889301e-03 9.9999880247023443e-01 7.3564255689892735e-02 1.1814574058354511e-10 2.7061459359795869e-03
-9.3999999999999995e-01 9.3654896513889301e-03 9.9999815635755995e-01 7.3564207656021757e-02 2.3283830709669088e-10 2.7061441689982786e-03
-9.2999999999999994e-01 9.3654896513889301e-03 9.9999729295528816e-01 7.3564143427585826e-02 4.1414544192198540e-10 2.7061418062812332e-03
-9.2000000000000004e-01 9.3654896513889301e-03 9.9999618281512892e-01 7.3564060796025857e-02 6.8423407967552755e-10 2.7061387665840578e-03
-9.1000000000000003e-01 9.3654896513889301e-03 9.9999479486183296e-01 7.3563957429822732e-02 1.0690841227249475e-09 2.7061349641391359e-03
-9.0000000000000002e-01 9.3654896513889301e-03 9.9999309612684084e-01 7.3563830854288664e-02 1.5990224499347308e-09 2.7061303079122237e-03
-8.9000000000000001e-01 9.3654896513889301e-03 9.9999105128047017e-01 7.3563678416341788e-02 2.3095178859209933e-09 2.7061247003066472e-03
-8.8000000000000000e-01 9.3654896513889301e-03 9.9998862190359994e-01 7.3563497229694963e-02 3.2425146787377542e-09 2.7061180351470077e-03
-8.7000000000000000e-01 9.3654896513889301e-03 9.9998576525112737e-01 7.3563284081731004e-02 4.4489127466566577e-09 2.7061101942534786e-03
-8.5999999999999999e-01 9.3654896513889301e-03 9.9998243202866588e-01 7.3563035265930846e-02 5.9932979365861606e-09 2.7061010412774830e-03