variables="x","y","tau","u","v","psi"
zone i=101, j=51, f=point
-1.0000000000000000e+00 0.0000000000000000e+00 1.0000000000000000e+00 0.0000000000000000e+00 0.0000000000000000e+00 0.0000000000000000e+00
-9.7999999999999998e-01 0.0000000000000000e+00 9.9999544187227529e-01 0.0000000000000000e+00 0.0000000000000000e+00 0.0000000000000000e+00
-9.5999999999999996e-01 0.0000000000000000e+00 9.9999455467953247e-01 0.0000000000000000e+00 0.0000000000000000e+00 0.0000000000000000e+00
-9.3999999999999995e-01 0.0000000000000000e+00 9.9998939198135739e-01 0.0000000000000000e+00 0.0000000000000000e+00 0.0000000000000000e+00
-9.2000000000000004e-01 0.0000000000000000e+00 9.9997952348849717e-01 0.0000000000000000e+00 0.0000000000000000e+00 0.0000000000000000e+00
-9.0000000000000002e-01 0.0000000000000000e+00 9.9996381315192051e-01 0.0000000000000000e+00 0.0000000000000000e+00 0.0000000000000000e+00
-8.8000000000000000e-01 0.0000000000000000e+00 9.9994077231793621e-01 0.0000000000000000e+00 0.0000000000000000e+00 0.0000000000000000e+00
-8.5999999999999999e-01 0.0000000000000000e+00 9.9990795918886377e-01 0.0000000000000000e+00 0.0000000000000000e+00 0.0000000000000000e+00
-8.3999999999999997e-01 0.0000000000000000e+00 9.9985950320828232e-01 0.0000000000000000e+00 0.0000000000000000e+00 0.0000000000000000e+00
-8.2000000000000006e-01 0.0000000000000000e+00 9.9977909839461565e-01 0.0000000000000000e+00 0.0000000000000000e+00 0.0000000000000000e+00
-8.0000000000000004e-01 0.0000000000000000e+00 9.9962517587492239e-01 0.0000000000000000e+00 0.0000000000000000e+00 0.0000000000000000e+00
-7.8000000000000003e-01 0.0000000000000000e+00 9.9930657190756711e-01 0.0000000000000000e+00 0.0000000000000000e+00 0.0000000000000000e+00
-7.6000000000000001e-01 0.0000000000000000e+00 9.9865060182541832e-01 0.0000000000000000e+00 0.0000000000000000e+00 0.0000000000000000e+00
-7.3999999999999999e-01 0.0000000000000000e+00 9.9736896059256108e-01 0.0000000000000000e+00 0.0000000000000000e+00 0.0000000000000000e+00
-7.1999999999999997e-01 0.0000000000000000e+00 9.9502847104743919e-01 0.0000000000000000e+00 0.0000000000000000e+00 0.0000000000000000e+00
-6.9999999999999996e-01 0.0000000000000000e+00 9.9103332006326295e-01 0.0000000000000000e+00 0.0000000000000000e+00 0.0000000000000000e+00
-6.7999999999999994e-01 0.0000000000000000e+00 9.8462417838936589e-01 0.0000000000000000e+00 0.0000000000000000e+00 0.0000000000000000e+00
-6.5999999999999992e-01 0.0000000000000000e+00 9.7489842864419785e-01 0.0000000000000000e+00 0.0000000000000000e+00 0.0000000000000000e+00
-6.4000000000000001e-01 0.0000000000000000e+00 9.6085468968386234e-01 0.0000000000000000e+00 0.0000000000000000e+00 0.0000000000000000e+00
-6.2000000000000000e-01 0.0000000000000000e+00 9.4146327366169535e-01 0.0000000000000000e+00 0.0000000000000000e+00 0.0000000000000000e+00
-5.9999999999999998e-01 0.0000000000000000e+00 9.1576131321425536e-01 0.0000000000000000e+00 0.0000000000000000e+00 0.0000000000000000e+00
-5.8000000000000007e-01 0.0000000000000000e+00 8.8296658859462152e-01 0.0000000000000000e+00 0.0000000000000000e+00 0.0000000000000000e+00
-5.6000000000000005e-01 0.0000000000000000e+00 8.4259793149911610e-01 0.0000000000000000e+00 0.0000000000000000e+00 0.0000000000000000e+00
-5.4000000000000004e-01 0.0000000000000000e+00 7.9458393594201226e-01 0.0000000000000000e+00 0.0000000000000000e+00 0.0000000000000000e+00
-5.2000000000000002e-01 0.0000000000000000e+00 7.3933797457837436e-01 0.0000000000000000e+00 0.0000000000000000e+00 0.0000000000000000e+00
-5.0000000000000000e-01 0.0000000000000000e+00 6.7777882455243221e-01 0.0000000000000000e+00 0.0000000000000000e+00 0.0000000000000000e+00
-4.7999999999999998e-01 0.0000000000000000e+00 6.1128409506070991e-01 0.0000000000000000e+00 0.0000000000000000e+00 0.0000000000000000e+00
-4.5999999999999996e-01 0.0000000000000000e+00 5.4157727455862414e-01 0.0000000000000000e+00 0.0000000000000000e+00 0.0000000000000000e+00
-4.3999999999999995e-01 0.0000000000000000e+00 4.7056491256857030e-01 0.0000000000000000e+00 0.0000000000000000e+00 0.0000000000000000e+00
-4.2000000000000004e-01 0.0000000000000000e+00 4.0015284958949737e-01 0.0000000000000000e+00 0.0000000000000000e+00 0.0000000000000000e+00
-4.0000000000000002e-01 0.0000000000000000e+00 3.3207484362750972e-01 0.0000000000000000e+00 0.0000000000000000e+00 0.0000000000000000e+00
-3.8000000000000000e-01 0.0000000000000000e+00 2.6776183747933241e-01 0.0000000000000000e+00 0.0000000000000000e+00 0.0000000000000000e+00
-3.5999999999999999e-01 0.0000000000000000e+00 2.0826779777165905e-01 0.0000000000000000e+00 0.0000000000000000e+00 0.0000000000000000e+00
-3.3999999999999997e-01 0.0000000000000000e+00 1.5425346039860260e-01 0.0000000000000000e+00 0.0000000000000000e+00 0.0000000000000000e+00
-3.1999999999999995e-01 0.0000000000000000e+00 1.0601741865313641e-01 0.0000000000000000e+00 0.0000000000000000e+00 0.0000000000000000e+00
-2.9999999999999993e-01 0.0000000000000000e+00 6.3557686889649231e-02 0.0000000000000000e+00 0.0000000000000000e+00 0.0000000000000000e+00
-2.8000000000000003e-01 0.0000000000000000e+00 2.6646331891318653e-02 0.0000000000000000e+00 0.0000000000000000e+00 0.0000000000000000e+00
-2.6000000000000001e-01 0.0000000000000000e+00 -5.0967875166122350e-03 0.0000000000000000e+00 0.0000000000000000e+00 0.0000000000000000e+00
-2.3999999999999999e-01 0.0000000000000000e+00 -3.2140068650778363e-02 0.0000000000000000e+00 0.0000000000000000e+00 0.0000000000000000e+00
-2.1999999999999997e-01 0.0000000000000000e+00 -5.4990075362878567e-02 0.0000000000000000e+00 0.0000000000000000e+00 0.0000000000000000e+00
-1.9999999999999996e-01 0.0000000000000000e+00 -7.4155916427200319e-02 0.0000000000000000e+00 0.0000000000000000e+00 0.0000000000000000e+00
-1.7999999999999994e-01 0.0000000000000000e+00 -9.0126538220278343e-02 0.0000000000000000e+00 0.0000000000000000e+00 0.0000000000000000e+00
-1.6000000000000003e-01 0.0000000000000000e+00 -1.0335925810137504e-01 0.0000000000000000e+00 0.0000000000000000e+00 0.0000000000000000e+00
-1.4000000000000001e-01 0.0000000000000000e+00 -1.1427606530816338e-01 0.0000000000000000e+00 0.0000000000000000e+00 0.0000000000000000e+00
-1.2000000000000000e-01 0.0000000000000000e+00 -1.2327056492982000e-01 0.0000000000000000e+00 0.0000000000000000e+00 0.0000000000000000e+00
-9.9999999999999978e-02 0.0000000000000000e+00 -1.3071676690532796e-01 0.0000000000000000e+00 0.0000000000000000e+00 0.0000000000000000e+00
-7.9999999999999960e-02 0.0000000000000000e+00 -1.3700481061656408e-01 0.0000000000000000e+00 0.0000000000000000e+00 0.0000000000000000e+00
-5.9999999999999942e-02 0.0000000000000000e+00 -1.4256314268257403e-01 0.0000000000000000e+00 0.0000000000000000e+00 0.0000000000000000e+00
-4.0000000000000036e-02 0.0000000000000000e+00 -1.4797703503780696e-01 0.0000000000000000e+00 0.0000000000000000e+00 0.0000000000000000e+00
-2.0000000000000018e-02 0.0000000000000000e+00 -1.5412216746359181e-01 0.0000000000000000e+00 0.0000000000000000e+00 0.0000000000000000e+00
0.0000000000000000e+00 0.0000000000000000e+00 -1.6236570705523484e-01 0.0000000000000000e+00 0.0000000000000000e+00 0.0000000000000000e+00
2.0000000000000018e-02 0.0000000000000000e+00 -1.7206768873234382e-01 0.0000000000000000e+00 0.0000000000000000e+00 0.0000000000000000e+00
4.0000000000000036e-02 0.0000000000000000e+00 -1.8081138850928374e-01 0.0000000000000000e+00 0.0000000000000000e+00 0.0000000000000000e+00
6.0000000000000053e-02 0.0000000000000000e+00 -1.8692998348795276e-01 0.0000000000000000e+00 0.0000000000000000e+00 0.0000000000000000e+00
8.0000000000000071e-02 0.0000000000000000e+00 -1.8971433095980181e-01 0.0000000000000000e+00 0.0000000000000000e+00 0.0000000000000000e+00
1.0000000000000009e-01 0.0000000000000000e+00 -1.8883653610091111e-01 0.0000000000000000e+00 0.0000000000000000e+00 0.0000000000000000e+00
1.2000000000000011e-01 0.0000000000000000e+00 -1.8412152429651932e-01 0.0000000000000000e+00 0.0000000000000000e+00 0.0000000000000000e+00
1.4000000000000012e-01 0.0000000000000000e+00 -1.7549755728559296e-01 0.0000000000000000e+00 0.0000000000000000e+00 0.0000000000000000e+00
1.5999999999999992e-01 0.0000000000000000e+00 -1.6298697925575578e-01 0.0000000000000000e+00 0.0000000000000000e+00 0.0000000000000000e+00
1.7999999999999994e-01 0.0000000000000000e+00 -1.4669934275339058e-01 0.0000000000000000e+00 0.0000000000000000e+00 0.0000000000000000e+00
1.9999999999999996e-01 0.0000000000000000e+00 -1.2682330629376429e-01 0.0000000000000000e+00 0.0000000000000000e+00 0.0000000000000000e+00
2.1999999999999997e-01 0.0000000000000000e+00 -1.0361679543917718e-01 0.0000000000000000e+00 0.0000000000000000e+00 0.0000000000000000e+00
2.3999999999999999e-01 0.0000000000000000e+00 -7.7395175321171697e-02 0.0000000000000000e+00 0.0000000000000000e+00 0.0000000000000000e+00
2.6000000000000001e-01 0.0000000000000000e+00 -4.8517686008139979e-02 0.0000000000000000e+00 0.0000000000000000e+00 0.0000000000000000e+00
2.8000000000000003e-01 0.0000000000000000e+00 -1.7372839665357073e-02 0.0000000000000000e+00 0.0000000000000000e+00 0.0000000000000000e+00
3.0000000000000004e-01 0.0000000000000000e+00 1.5636273229312360e-02 0.0000000000000000e+00 0.0000000000000000e+00 0.0000000000000000e+00
3.2000000000000006e-01 0.0000000000000000e+00 5.0105869247814655e-02 0.0000000000000000e+00 0.0000000000000000e+00 0.0000000000000000e+00
3.4000000000000008e-01 0.0000000000000000e+00 8.5643836255071160e-02 0.0000000000000000e+00 0.0000000000000000e+00 0.0000000000000000e+00
3.6000000000000010e-01 0.0000000000000000e+00 1.2187996840516827e-01 0.0000000000000000e+00 0.0000000000000000e+00 0.0000000000000000e+00
3.8000000000000012e-01 0.0000000000000000e+00 1.5847379995848740e-01 0.0000000000000000e+00 0.0000000000000000e+00 0.0000000000000000e+00
4.0000000000000013e-01 0.0000000000000000e+00 1.9512000786698472e-01 0.0000000000000000e+00 0.0000000000000000e+00 0.0000000000000000e+00
4.1999999999999993e-01 0.0000000000000000e+00 2.3155154076186171e-01 0.0000000000000000e+00 0.0000000000000000e+00 0.0000000000000000e+00
4.3999999999999995e-01 0.0000000000000000e+00 2.6754076451423309e-01 0.0000000000000000e+00 0.0000000000000000e+00 0.0000000000000000e+00
4.5999999999999996e-01 0.0000000000000000e+00 3.0289898736509535e-01 0.0000000000000000e+00 0.0000000000000000e+00 0.0000000000000000e+00
4.7999999999999998e-01 0.0000000000000000e+00 3.3747474957682849e-01 0.0000000000000000e+00 0.0000000000000000e+00 0.0000000000000000e+00
5.0000000000000000e-01 0.0000000000000000e+00 3.7115124646808878e-01 0.0000000000000000e+00 0.0000000000000000e+00 0.0000000000000000e+00
5.2000000000000002e-01 0.0000000000000000e+00 4.0384321292656994e-01 0.0000000000000000e+00 0.0000000000000000e+00 0.0000000000000000e+00
5.4000000000000004e-01 0.0000000000000000e+00 4.3549354383832883e-01 0.0000000000000000e+00 0.0000000000000000e+00 0.0000000000000000e+00
5.6000000000000005e-01 0.0000000000000000e+00 4.6606986752987306e-01 0.0000000000000000e+00 0.0000000000000000e+00 0.0000000000000000e+00
5.8000000000000007e-01 0.0000000000000000e+00 4.9556123468160973e-01 0.0000000000000000e+00 0.0000000000000000e+00 0.0000000000000000e+00
6.0000000000000009e-01 0.0000000000000000e+00 5.2397503713405402e-01 0.0000000000000000e+00 0.0000000000000000e+00 0.0000000000000000e+00
6.2000000000000011e-01 0.0000000000000000e+00 5.5133423149858996e-01 0.0000000000000000e+00 0.0000000000000000e+00 0.0000000000000000e+00
6.4000000000000012e-01 0.0000000000000000e+00 5.7767491207180333e-01 0.0000000000000000e+00 0.0000000000000000e+00 0.0000000000000000e+00
6.6000000000000014e-01 0.0000000000000000e+00 6.0304425599454980e-01 0.0000000000000000e+00 0.0000000000000000e+00 0.0000000000000000e+00
6.7999999999999994e-01 0.0000000000000000e+00 6.2749885032925490e-01 0.0000000000000000e+00 0.0000000000000000e+00 0.0000000000000000e+00
6.9999999999999996e-01 0.0000000000000000e+00 6.5110340526762656e-01 0.0000000000000000e+00 0.0000000000000000e+00 0.0000000000000000e+00
7.1999999999999997e-01 0.0000000000000000e+00 6.7392986001489197e-01 0.0000000000000000e+00 0.0000000000000000e+00 0.0000000000000000e+00
7.3999999999999999e-01 0.0000000000000000e+00 6.9605689898113676e-01 0.0000000000000000e+00 0.0000000000000000e+00 0.0000000000000000e+00
7.6000000000000001e-01 0.0000000000000000e+00 7.1756991839771633e-01 0.0000000000000000e+00 0.0000000000000000e+00 0.0000000000000000e+00
7.8000000000000003e-01 0.0000000000000000e+00 7.3856152315251367e-01 0.0000000000000000e+00 0.0000000000000000e+00 0.0000000000000000e+00
8.0000000000000004e-01 0.0000000000000000e+00 7.5913270226509855e-01 0.0000000000000000e+00 0.0000000000000000e+00 0.0000000000000000e+00
8.2000000000000006e-01 0.0000000000000000e+00 7.7939495310809181e-01 0.0000000000000000e+00 0.0000000000000000e+00 0.0000000000000000e+00
8.4000000000000008e-01 0.0000000000000000e+00 7.9947385052839470e-01 0.0000000000000000e+00 0.0000000000000000e+00 0.0000000000000000e+00
8.6000000000000010e-01 0.0000000000000000e+00 8.1951500365510199e-01 0.0000000000000000e+00 0.0000000000000000e+00 0.0000000000000000e+00
8.8000000000000012e-01 0.0000000000000000e+00 8.3969429650916672e-01 0.0000000000000000e+00 0.0000000000000000e+00 0.0000000000000000e+00
9.0000000000000013e-01 0.0000000000000000e+00 8.6023655307601521e-01 0.0000000000000000e+00 0.0000000000000000e+00 0.0000000000000000e+00
9.1999999999999993e-01 0.0000000000000000e+00 8.8145279084910633e-01 0.0000000000000000e+00 0.0000000000000000e+00 0.0000000000000000e+00
9.3999999999999995e-01 0.0000000000000000e+00 9.0382584582473158e-01 0.0000000000000000e+00 0.0000000000000000e+00 0.0000000000000000e+00
9.5999999999999996e-01 0.0000000000000000e+00 9.2826223891070048e-01 0.0000000000000000e+00 0.0000000000000000e+00 0.0000000000000000e+00
9.7999999999999998e-01 0.0000000000000000e+00 9.5760980065208490e-01 0.0000000000000000e+00 0.0000000000000000e+00 0.0000000000000000e+00
1.0000000000000000e+00 0.0000000000000000e+00 1.0000000000000000e+00 0.0000000000000000e+00 0.0000000000000000e+00 0.0000000000000000e+00
-1.0000000000000000e+00 1.8730979302777860e-02 1.0000000000000000e+00 1.8730979302777860e-02 -0.0000000000000000e+00 1.3789765180890160e-03
-9.7999999999999998e-01 1.8730979302777860e-02 9.9999555025123310e-01 1.4717581810717817e-01 -2.9697479451378536e-05 1.0835098043712030e-02
-9.5999999999999996e-01 1.8730979302777860e-02 9.9999464794729709e-01 1.4717568642078482e-01 8.0826491088178602e-10 1.0835088348946944e-02
-9.3999999999999995e-01 1.8730979302777860e-02 9.9998971200008802e-01 1.4717494328646322e-01 4.4870141033832079e-09 1.0835033639325907e-02
-9.2000000000000004e-01 1.8730979302777860e-02 9.9998029919937670e-01 1.4717352442451181e-01 1.3522909716625115e-08 1.0834929182571043e-02
-9.0000000000000002e-01 1.8730979302777860e-02 9.9996536935759228e-01 1.4717126969256203e-01 3.1859403677568502e-08 1.0834763188985599e-02
-8.8000000000000000e-01 1.8730979302777860e-02 9.9994355456432893e-01 1.4716796888493455e-01 6.5761585839158883e-08 1.0834520183207023e-02
-8.5999999999999999e-01 1.8730979302777860e-02 9.9991261323800795e-01 1.4716327736636844e-01 1.2936614994275241e-07 1.0834174793153878e-02
-8.3999999999999997e-01 1.8730979302777860e-02 9.9986717583265394e-01 1.4715636801346599e-01 2.6564275825946058e-07 1.0833666125921178e-02
-8.2000000000000006e-01 1.8730979302777860e-02 9.9979239720640045e-01 1.4714494851640142e-01 6.0524205617605075e-07 1.0832825421436596e-02
-8.0000000000000004e-01 1.8730979302777860e-02 9.9965058177145749e-01 1.4712318606636665e-01 1.4912790299832933e-06 1.0831223267748371e-02
-7.8000000000000003e-01 1.8730979302777860e-02 9.9935930071071810e-01 1.4707830657066839e-01 3.6851457110203817e-06 1.0827919234909984e-02
-7.6000000000000001e-01 1.8730979302777860e-02 9.9876272199148108e-01 1.4698613560026533e-01 8.6369460406490191e-06 1.0821133599104147e-02
-7.3999999999999999e-01 1.8730979302777860e-02 9.9760097277315030e-01 1.4680633461550813e-01 1.8770230120251042e-05 1.0807896633118461e-02
-7.1999999999999997e-01 1.8730979302777860e-02 9.9548373415751590e-01 1.4647830535563522e-01 3.7710355043974096e-05 1.0783747087101730e-02
-6.9999999999999996e-01 1.8730979302777860e-02 9.9187386953468304e-01 1.4591867791220628e-01 7.0380915849779953e-05 1.0742547260285826e-02
-6.7999999999999994e-01 1.8730979302777860e-02 9.8608570997872724e-01 1.4502111975847681e-01 1.2289554149409716e-04 1.0676468941709674e-02
-6.5999999999999992e-01 1.8730979302777860e-02 9.7730152752974231e-01 1.4365903641203912e-01 2.0217866787914426e-04 1.0576192233265546e-02
-6.4000000000000001e-01 1.8730979302777860e-02 9.6460883439416334e-01 1.4169159245711466e-01 3.1526457672194011e-04 1.0431348817945843e-02
-6.2000000000000000e-01 1.8730979302777860e-02 9.4705994310246966e-01 1.3897327893566694e-01 4.6826206378491767e-04 1.0231226312107381e-02
-5.9999999999999998e-01 1.8730979302777860e-02 9.2375301328005432e-01 1.3536687723035018e-01 6.6504413539289454e-04 9.9657226677949632e-03
-5.8000000000000007e-01 1.8730979302777860e-02 8.9393015494420547e-01 1.3075905415106895e-01 9.0582776258876232e-04 9.6264942845307126e-03
-5.6000000000000005e-01 1.8730979302777860e-02 8.5708323053424140e-01 1.2507700756080622e-01 1.1859263903082531e-03 9.2081814619065349e-03
-5.4000000000000004e-01 1.8730979302777860e-02 8.1305281075802782e-01 1.1830374789348300e-01 1.4950419548659026e-03 8.7095334264152488e-03
-5.2000000000000002e-01 1.8730979302777860e-02 7.6210210114595356e-01 1.1048905856347971e-01 1.8174544617278862e-03 8.1342152378655885e-03
-5.0000000000000000e-01 1.8730979302777860e-02 7.0494769717620476e-01 1.0175327732376790e-01 2.1333206496956750e-03 7.4910861733356524e-03
-4.7999999999999998e-01 1.8730979302777860e-02 6.4273427299031505e-01 9.2282007146650052e-02 2.4210141441062716e-03 6.7938103416985210e-03
-4.5999999999999996e-01 1.8730979302777860e-02 5.7695062036265610e-01 8.2311626605514027e-02 2.6601054862569720e-03 6.0597899565177412e-03
-4.3999999999999995e-01 1.8730979302777860e-02 5.0929744555886070e-01 7.2107580749291703e-02 2.8343244133767665e-03 5.3085671081134767e-03
-4.2000000000000004e-01 1.8730979302777860e-02 4.4152889661510142e-01 6.1939196862059245e-02 2.9337951065370209e-03 4.5599696973348111e-03
-4.0000000000000002e-01 1.8730979302777860e-02 3.7529577287177945e-01 5.2055535920983831e-02 2.9560324460581595e-03 3.8323336175450423e-03
-3.8000000000000000e-01 1.8730979302777860e-02 3.1201656638124203e-01 4.2666282426355527e-02 2.9055601954413373e-03 3.1410958620499249e-03
-3.5999999999999999e-01 1.8730979302777860e-02 2.5279380849656097e-01 3.3930130817238280e-02 2.7924038100318447e-03 2.4979395308883361e-03
-3.3999999999999997e-01 1.8730979302777860e-02 1.9838114889067621e-01 2.5951166198817415e-02 2.6299674382025268e-03 1.9105273796275793e-03
-3.1999999999999995e-01 1.8730979302777860e-02 1.4919545848693860e-01 1.8782042091848604e-02 2.4328541119916975e-03 1.3827357655868898e-03
-2.9999999999999993e-01 1.8730979302777860e-02 1.0536112143154623e-01 1.2431769612362316e-02 2.2150599349322780e-03 9.1522808800487262e-04
-2.8000000000000003e-01 1.8730979302777860e-02 6.6771494319136870e-02 6.8757317193253809e-03 1.9887606992296928e-03 5.0619203792635588e-04
-2.6000000000000001e-01 1.8730979302777860e-02 3.3154292845863777e-02 2.0659210056892404e-03 1.7637093101099523e-03 1.5209330537511263e-04
-2.3999999999999999e-01 1.8730979302777860e-02 4.1315440502420163e-03 -2.0599425474867191e-03 1.5471312595092884e-03 -1.5165317070076431e-04
-2.1999999999999997e-01 1.8730979302777860e-02 -2.0731036251844890e-02 -5.5710919891284426e-03 1.3439554574620118e-03 -4.1014433409696991e-04
-1.9999999999999996e-01 1.8730979302777860e-02 -4.1886967932951519e-02 -8.5383636967180532e-03 1.1572238866803296e-03 -6.2859516581344839e-04
-1.7999999999999994e-01 1.8730979302777860e-02 -5.9783635565197481e-02 -1.1030659293257191e-02 9.8858217841679935e-04 -8.1207821003711263e-04
-1.6000000000000003e-01 1.8730979302777860e-02 -7.4847537861028490e-02 -1.3113016266595893e-02 8.3875034591868614e-04 -9.6538153294917900e-04
-1.4000000000000001e-01 1.8730979302777860e-02 -8.7477224605320925e-02 -1.4845815892950578e-02 7.0806225533220641e-04 -1.0929504099775234e-03
-1.2000000000000000e-01 1.8730979302777860e-02 -9.8046091811559696e-02 -1.6285499790123101e-02 5.9688482901035548e-04 -1.1989400785143609e-03
-9.9999999999999978e-02 1.8730979302777860e-02 -1.0690747676899237e-01 -1.7485591502299402e-02 5.0655721193792601e-04 -1.2872909470884849e-03
-7.9999999999999960e-02 1.8730979302777860e-02 -1.1442229428886491e-01 -1.8501358855062558e-02 4.3987935895167498e-04 -1.3620718383947981e-03
-5.9999999999999942e-02 1.8730979302777860e-02 -1.2097535809909964e-01 -1.9392646856402088e-02 4.0375140981001453e-04 -1.4276885477421534e-03
-4.0000000000000036e-02 1.8730979302777860e-02 -1.2707166263406147e-01 -2.0239683732680928e-02 4.1270014693772707e-04 -1.4900474849585735e-03
-2.0000000000000018e-02 1.8730979302777860e-02 -1.3344270758153987e-01 -2.1160734400068569e-02 4.9038454782412966e-04 -1.5578553246751769e-03
0.0000000000000000e+00 1.8730979302777860e-02 -1.4114808369129603e-01 -2.2334369900085808e-02 5.8639840656373560e-04 -1.6442584843369579e-03
2.0000000000000018e-02 1.8730979302777860e-02 -1.4950261652716126e-01 -2.3663074107082599e-02 5.8141864613826583e-04 -1.7420778172889161e-03
4.0000000000000036e-02 1.8730979302777860e-02 -1.5645290300702136e-01 -2.4817909809613868e-02 4.4730877564044114e-04 -1.8270969340312682e-03
6.0000000000000053e-02 1.8730979302777860e-02 -1.6068354404564827e-01 -2.5579431734408343e-02 2.4142674609668529e-04 -1.8831602522020269e-03
8.0000000000000071e-02 1.8730979302777860e-02 -1.6167672887633880e-01 -2.5857356629278974e-02 7.2946671426950721e-06 -1.9036211099940227e-03
1.0000000000000009e-01 1.8730979302777860e-02 -1.5920821624535281e-01 -2.5611057073828741e-02 -2.3720898645020365e-04 -1.8854885127661104e-03
1.2000000000000011e-01 1.8730979302777860e-02 -1.5317023722534726e-01 -2.4819721253602600e-02 -4.8270452366463090e-04 -1.8272302927139039e-03
1.4000000000000012e-01 1.8730979302777860e-02 -1.4353809118696631e-01 -2.3476253898809314e-02 -7.2168793309408631e-04 -1.7283240953852698e-03
1.5999999999999992e-01 1.8730979302777860e-02 -1.3036460487398174e-01 -2.1586187677102055e-02 -9.4742777734770295e-04 -1.5891772363109547e-03
1.7999999999999994e-01 1.8730979302777860e-02 -1.1377452796114942e-01 -1.9166764960808508e-02 -1.1540540299694244e-03 -1.4110591006187567e-03
1.9999999999999996e-01 1.8730979302777860e-02 -9.3957390820590125e-02 -1.6245816032498476e-02 -1.3367135557817576e-03 -1.1960185564183017e-03
2.1999999999999997e-01 1.8730979302777860e-02 -7.1158857081769625e-02 -1.2860398744097565e-02 -1.4917057559669295e-03 -9.4678380637268562e-04
2.3999999999999999e-01 1.8730979302777860e-02 -4.5670519981369062e-02 -9.0551773366773919e-03 -1.6165782588219392e-03 -6.6664303625374888e-04
2.6000000000000001e-01 1.8730979302777860e-02 -1.7818410094526064e-02 -4.8805786132066114e-03 -1.7101571865167763e-03 -3.5930867220067150e-04
2.8000000000000003e-01 1.8730979302777860e-02 1.2049198736832951e-02 -3.9082007770875127e-04 -1.7724984762499067e-03 -2.8772212132985879e-05
3.0000000000000004e-01 1.8730979302777860e-02 4.3573931148461365e-02 4.3580647627821795e-03 -1.8047648524604424e-03 3.2084115171151530e-04
3.2000000000000006e-01 1.8730979302777860e-02 7.6398709202047221e-02 9.3100869469456785e-03 -1.8090461075514479e-03 6.8540950655480038e-04
3.4000000000000008e-01 1.8730979302777860e-02 1.1017783115961190e-01 1.4410953528540774e-02 -1.7881426699357149e-03 1.0609358004139509e-03
3.6000000000000010e-01 1.8730979302777860e-02 1.4458528739495999e-01 1.9609432643922894e-02 -1.7453353681503561e-03 1.4436483385045240e-03
3.8000000000000012e-01 1.8730979302777860e-02 1.7932111986077892e-01 2.4858397923888997e-02 -1.6841639255382847e-03 1.8300776729421712e-03
4.0000000000000013e-01 1.8730979302777860e-02 2.1411581061411333e-01 3.0115548971985772e-02 -1.6082297962593454e-03 2.2171096444257650e-03
4.1999999999999993e-01 1.8730979302777860e-02 2.4873283198708546e-01 3.5343829265343830e-02 -1.5210331553481616e-03 2.6020161481374580e-03
4.3999999999999995e-01 1.8730979302777860e-02 2.8296959200983657e-01 4.0511580020106623e-02 -1.4258483500016606e-03 2.9824664613305250e-03
4.5999999999999996e-01 1.8730979302777860e-02 3.1665706421568640e-01 4.5592478007928122e-02 -1.3256375609437289e-03 3.3565226653738713e-03
4.7999999999999998e-01 1.8730979302777860e-02 3.4965840783867946e-01 5.0565308167731422e-02 -1.2229991935058691e-03 3.7226229054075910e-03
5.0000000000000000e-01 1.8730979302777860e-02 3.8186687232025390e-01 5.5413619783051753e-02 -1.1201456092749802e-03 4.0795560780855110e-03
5.2000000000000002e-01 1.8730979302777860e-02 4.1320324898990818e-01 6.0125309710544465e-02 -1.0189040189753269e-03 4.4264311488174191e-03
5.4000000000000004e-01 1.8730979302777860e-02 4.4361309163082607e-01 6.4692169168758668e-02 -9.2073440020262525e-04 4.7626437863144975e-03
5.6000000000000005e-01 1.8730979302777860e-02 4.7306388334428884e-01 6.9109423117211133e-02 -8.2675888821282960e-04 5.0878424516319362e-03
5.8000000000000007e-01 1.8730979302777860e-02 5.0154228459635231e-01 7.3375284105762023e-02 -7.3779796288822878e-04 5.4018955525165901e-03
6.0000000000000009e-01 1.8730979302777860e-02 5.2905155963257411e-01 7.7490536165544091e-02 -6.5440972904815334e-04 5.7048608094167107e-03
6.2000000000000011e-01 1.8730979302777860e-02 5.5560924719012517e-01 8.1458159105409503e-02 -5.7692953103356771e-04 5.9969575961498168e-03
6.4000000000000012e-01 1.8730979302777860e-02 5.8124511720809868e-01 8.5282999557099365e-02 -5.0550797993938071e-04 6.2785427222160819e-03
6.6000000000000014e-01 1.8730979302777860e-02 6.0599943801533929e-01 8.8971492258775181e-02 -4.4014616784006605e-04 6.5500899136648142e-03
6.7999999999999994e-01 1.8730979302777860e-02 6.2992156800880372e-01 9.2531433320098694e-02 -3.8072739078481540e-04 6.8121731208475788e-03
6.9999999999999996e-01 1.8730979302777860e-02 6.5306888196980040e-01 9.5971806525741832e-02 -3.2704511128364976e-04 7.0654537308657075e-03
7.1999999999999997e-01 1.8730979302777860e-02 6.7550604520052171e-01 9.9302664129325272e-02 -2.7882718048912537e-04 7.3106717916084597e-03
7.3999999999999999e-01 1.8730979302777860e-02 6.9730465981054757e-01 1.0253506522578122e-01 -2.3575653240574931e-04 7.5486414747203776e-03
7.6000000000000001e-01 1.8730979302777860e-02 7.1854332960687683e-01 1.0568107807298747e-01 -1.9748867907101841e-04 7.7802512465202124e-03
7.8000000000000003e-01 1.8730979302777860e-02 7.3930822907555871e-01 1.0875385852565553e-01 -1.6366639639928203e-04 8.0064696423113920e-03
8.0000000000000004e-01 1.8730979302777860e-02 7.5969432976390383e-01 1.1176782678541010e-01 -1.3393201229371950e-04 8.2283582787400691e-03
8.2000000000000006e-01 1.8730979302777860e-02 7.7980755815384872e-01 1.1473898251367769e-01 -1.0793770679142360e-04 8.4470950524366296e-03
8.4000000000000008e-01 1.8730979302777860e-02 7.9976838420665008e-01 1.1768543155234684e-01 -8.5354223390358589e-05 8.6640129172419218e-03
8.6000000000000010e-01 1.8730979302777860e-02 8.1971778540268436e-01 1.2062826315820682e-01 -6.5878390874976058e-05 8.8806644662919650e-03
8.8000000000000012e-01 1.8730979302777860e-02 8.3982748339951097e-01 1.2359305688892380e-01 -4.9239901858497428e-05 9.0989328691100674e-03
9.0000000000000013e-01 1.8730979302777860e-02 8.6031859378031861e-01 1.2661262853457872e-01 -3.5207982596408031e-05 9.3212340273537281e-03
9.1999999999999993e-01 1.8730979302777860e-02 8.8149885031607322e-01 1.2973251080741202e-01 -2.3599321872519346e-05 9.5509200637267037e-03
9.3999999999999995e-01 1.8730979302777860e-02 9.0384817038192222e-01 1.3302355094107457e-01 -1.4292183204247969e-05 9.7932067584611399e-03
9.5999999999999996e-01 1.8730979302777860e-02 9.2827041439631897e-01 1.3661897162722528e-01 -7.3121100751948930e-06 1.0057901979074513e-02
9.7999999999999998e-01 1.8730979302777860e-02 9.5761155485916116e-01 1.4093776975444153e-01 -2.4409835486617539e-06 1.0375852317256502e-02
1.0000000000000000e+00 1.8730979302777860e-02 1.0000000000000000e+00 1.4717648097750713e-01 -0.0000000000000000e+00 1.0835146844290121e-02
-1.0000000000000000e+00 3.7461958605555720e-02 1.0000000000000000e+00 3.7461958605555720e-02 -0.0000000000000000e+00 5.5230831362155074e-03
-9.7999999999999998e-01 3.7461958605555720e-02 9.9999565868180906e-01 2.9460694731911147e-01 -1.1900366531495204e-04 4.3415629802985807e-02
-9.5999999999999996e-01 3.7461958605555720e-02 9.9999474144310796e-01 2.9460668150208513e-01 3.2098074479615814e-09 4.3415590793054348e-02
-9.3999999999999995e-01 3.7461958605555720e-02 9.9999003131709419e-01 2.9460522732053590e-01 1.7770165698844304e-08 4.3415374038229135e-02
-9.2000000000000004e-01 3.7461958605555720e-02 9.9998107252868229e-01 2.9460245422405740e-01 5.3514079866778417e-08 4.3414960437809576e-02
-9.0000000000000002e-01 3.7461958605555720e-02 9.9996691945488403e-01 2.9459805569354935e-01 1.2596180140071471e-07 4.3414303787712452e-02
-8.8000000000000000e-01 3.7461958605555720e-02 9.9994632359861391e-01 2.9459162866396815e-01 2.5974591268797792e-07 4.3413343386304620e-02
-8.5999999999999999e-01 3.7461958605555720e-02 9.9991724100167578e-01 2.9458251260661067e-01 5.1033112289179825e-07 4.3411979734689979e-02
-8.3999999999999997e-01 3.7461958605555720e-02 9.9987479551261815e-01 2.9456912517465172e-01 1.0459866796385727e-06 4.3409974251381059e-02
-8.2000000000000006e-01 3.7461958605555720e-02 9.9980557754057264e-01 2.9454709137304769e-01 2.3776667038704137e-06 4.3406666490499152e-02
-8.0000000000000004e-01 3.7461958605555720e-02 9.9967569141789125e-01 2.9450530134397790e-01 5.8460561591316362e-06 4.3400377590870620e-02
-7.8000000000000003e-01 3.7461958605555720e-02 9.9941126761803423e-01 2.9441946014336307e-01 1.4424493329746391e-05 4.3387433441964919e-02