variables="x","y","tau","u","v","psi"
zone i=201, j=101, f=point
-1.0000000000000000e+00 0.0000000000000000e+00 1.0000000000000000e+00 0.0000000000000000e+00 0.0000000000000000e+00 0.0000000000000000e+00
-9.8999999999999999e-01 0.0000000000000000e+00 9.9999966094725301e-01 0.0000000000000000e+00 0.0000000000000000e+00 0.0000000000000000e+00
-9.7999999999999998e-01 0.0000000000000000e+00 9.9999969594712346e-01 0.0000000000000000e+00 0.0000000000000000e+00 0.0000000000000000e+00
-9.6999999999999997e-01 0.0000000000000000e+00 9.9999955043691180e-01 0.0000000000000000e+00 0.0000000000000000e+00 0.0000000000000000e+00
-9.5999999999999996e-01 0.0000000000000000e+00 9.9999925507021348e-01 0.0000000000000000e+00 0.0000000000000000e+00 0.0000000000000000e+00
-9.4999999999999996e-01 0.0000000000000000e+00 9.9999879142531234e-01 0.0000000000000000e+00 0.0000000000000000e+00 0.0000000000000000e+00
-9.3999999999999995e-01 0.0000000000000000e+00 9.9999813340478672e-01 0.0000000000000000e+00 0.0000000000000000e+00 0.0000000000000000e+00
-9.2999999999999994e-01 0.0000000000000000e+00 9.9999725214285340e-01 0.0000000000000000e+00 0.0000000000000000e+00 0.0000000000000000e+00
-9.2000000000000004e-01 0.0000000000000000e+00 9.9999611700348190e-01 0.0000000000000000e+00 0.0000000000000000e+00 0.0000000000000000e+00
-9.1000000000000003e-01 0.0000000000000000e+00 9.9999469559730747e-01 0.0000000000000000e+00 0.0000000000000000e+00 0.0000000000000000e+00
-9.0000000000000002e-01 0.0000000000000000e+00 9.9999295331703775e-01 0.0000000000000000e+00 0.0000000000000000e+00 0.0000000000000000e+00
-8.9000000000000001e-01 0.0000000000000000e+00 9.9999085207416549e-01 0.0000000000000000e+00 0.0000000000000000e+00 0.0000000000000000e+00
-8.8000000000000000e-01 0.0000000000000000e+00 9.9998834680304338e-01 0.0000000000000000e+00 0.0000000000000000e+00 0.0000000000000000e+00
-8.7000000000000000e-01 0.0000000000000000e+00 9.9998537623122929e-01 0.0000000000000000e+00 0.0000000000000000e+00 0.0000000000000000e+00
-8.5999999999999999e-01 0.0000000000000000e+00 9.9998184125350720e-01 0.0000000000000000e+00 0.0000000000000000e+00 0.0000000000000000e+00
-8.4999999999999998e-01 0.0000000000000000e+00 9.9997756062327592e-01 0.0000000000000000e+00 0.0000000000000000e+00 0.0000000000000000e+00
-8.3999999999999997e-01 0.0000000000000000e+00 9.9997219100689561e-01 0.0000000000000000e+00 0.0000000000000000e+00 0.0000000000000000e+00
-8.2999999999999996e-01 0.0000000000000000e+00 9.9996509828916580e-01 0.0000000000000000e+00 0.0000000000000000e+00 0.0000000000000000e+00
-8.2000000000000006e-01 0.0000000000000000e+00 9.9995517020626745e-01 0.0000000000000000e+00 0.0000000000000000e+00 0.0000000000000000e+00
-8.1000000000000005e-01 0.0000000000000000e+00 9.9994056651127938e-01 0.0000000000000000e+00 0.0000000000000000e+00 0.0000000000000000e+00
-8.0000000000000004e-01 0.0000000000000000e+00 9.9991841050674302e-01 0.0000000000000000e+00 0.0000000000000000e+00 0.0000000000000000e+00
-7.9000000000000004e-01 0.0000000000000000e+00 9.9988443309959263e-01 0.0000000000000000e+00 0.0000000000000000e+00 0.0000000000000000e+00
-7.8000000000000003e-01 0.0000000000000000e+00 9.9983258606134284e-01 0.0000000000000000e+00 0.0000000000000000e+00 0.0000000000000000e+00
-7.7000000000000002e-01 0.0000000000000000e+00 9.9975464414942772e-01 0.0000000000000000e+00 0.0000000000000000e+00 0.0000000000000000e+00
-7.6000000000000001e-01 0.0000000000000000e+00 9.9963981613747999e-01 0.0000000000000000e+00 0.0000000000000000e+00 0.0000000000000000e+00
-7.5000000000000000e-01 0.0000000000000000e+00 9.9947438311676462e-01 0.0000000000000000e+00 0.0000000000000000e+00 0.0000000000000000e+00
-7.3999999999999999e-01 0.0000000000000000e+00 9.9924137941724822e-01 0.0000000000000000e+00 0.0000000000000000e+00 0.0000000000000000e+00
-7.2999999999999998e-01 0.0000000000000000e+00 9.9892032790599206e-01 0.0000000000000000e+00 0.0000000000000000e+00 0.0000000000000000e+00
-7.1999999999999997e-01 0.0000000000000000e+00 9.9848703786565129e-01 0.0000000000000000e+00 0.0000000000000000e+00 0.0000000000000000e+00
-7.0999999999999996e-01 0.0000000000000000e+00 9.9791347054892476e-01 0.0000000000000000e+00 0.0000000000000000e+00 0.0000000000000000e+00
-6.9999999999999996e-01 0.0000000000000000e+00 9.9716767505918691e-01 0.0000000000000000e+00 0.0000000000000000e+00 0.0000000000000000e+00
-6.8999999999999995e-01 0.0000000000000000e+00 9.9621379548125844e-01 0.0000000000000000e+00 0.0000000000000000e+00 0.0000000000000000e+00
-6.7999999999999994e-01 0.0000000000000000e+00 9.9501214911892144e-01 0.0000000000000000e+00 0.0000000000000000e+00 0.0000000000000000e+00
-6.6999999999999993e-01 0.0000000000000000e+00 9.9351937516647826e-01 0.0000000000000000e+00 0.0000000000000000e+00 0.0000000000000000e+00
-6.5999999999999992e-01 0.0000000000000000e+00 9.9168865299524145e-01 0.0000000000000000e+00 0.0000000000000000e+00 0.0000000000000000e+00
-6.4999999999999991e-01 0.0000000000000000e+00 9.8946998931162822e-01 0.0000000000000000e+00 0.0000000000000000e+00 0.0000000000000000e+00
-6.4000000000000001e-01 0.0000000000000000e+00 9.8681057359560509e-01 0.0000000000000000e+00 0.0000000000000000e+00 0.0000000000000000e+00
-6.3000000000000000e-01 0.0000000000000000e+00 9.8365520132707940e-01 0.0000000000000000e+00 0.0000000000000000e+00 0.0000000000000000e+00
-6.2000000000000000e-01 0.0000000000000000e+00 9.7994676444771733e-01 0.0000000000000000e+00 0.0000000000000000e+00 0.0000000000000000e+00
-6.0999999999999999e-01 0.0000000000000000e+00 9.7562680820805114e-01 0.0000000000000000e+00 0.0000000000000000e+00 0.0000000000000000e+00
-5.9999999999999998e-01 0.0000000000000000e+00 9.7063615295687444e-01 0.0000000000000000e+00 0.0000000000000000e+00 0.0000000000000000e+00
-5.8999999999999997e-01 0.0000000000000000e+00 9.6491557850618470e-01 0.0000000000000000e+00 0.0000000000000000e+00 0.0000000000000000e+00
-5.8000000000000007e-01 0.0000000000000000e+00 9.5840656744196018e-01 0.0000000000000000e+00 0.0000000000000000e+00 0.0000000000000000e+00
-5.7000000000000006e-01 0.0000000000000000e+00 9.5105210215244651e-01 0.0000000000000000e+00 0.0000000000000000e+00 0.0000000000000000e+00
-5.6000000000000005e-01 0.0000000000000000e+00 9.4279750844698051e-01 0.0000000000000000e+00 0.0000000000000000e+00 0.0000000000000000e+00
-5.5000000000000004e-01 0.0000000000000000e+00 9.3359133648797388e-01 0.0000000000000000e+00 0.0000000000000000e+00 0.0000000000000000e+00
-5.4000000000000004e-01 0.0000000000000000e+00 9.2338626743206986e-01 0.0000000000000000e+00 0.0000000000000000e+00 0.0000000000000000e+00
-5.3000000000000003e-01 0.0000000000000000e+00 9.1214003176696212e-01 0.0000000000000000e+00 0.0000000000000000e+00 0.0000000000000000e+00
-5.2000000000000002e-01 0.0000000000000000e+00 8.9981632295428426e-01 0.0000000000000000e+00 0.0000000000000000e+00 0.0000000000000000e+00
-5.1000000000000001e-01 0.0000000000000000e+00 8.8638568777690285e-01 0.0000000000000000e+00 0.0000000000000000e+00 0.0000000000000000e+00
-5.0000000000000000e-01 0.0000000000000000e+00 8.7182637288585951e-01 0.0000000000000000e+00 0.0000000000000000e+00 0.0000000000000000e+00
-4.8999999999999999e-01 0.0000000000000000e+00 8.5612510560054711e-01 0.0000000000000000e+00 0.0000000000000000e+00 0.0000000000000000e+00
-4.7999999999999998e-01 0.0000000000000000e+00 8.3927778618530624e-01 0.0000000000000000e+00 0.0000000000000000e+00 0.0000000000000000e+00
-4.6999999999999997e-01 0.0000000000000000e+00 8.2129006874780275e-01 0.0000000000000000e+00 0.0000000000000000e+00 0.0000000000000000e+00
-4.5999999999999996e-01 0.0000000000000000e+00 8.0217780869636623e-01 0.0000000000000000e+00 0.0000000000000000e+00 0.0000000000000000e+00
-4.4999999999999996e-01 0.0000000000000000e+00 7.8196735644290194e-01 0.0000000000000000e+00 0.0000000000000000e+00 0.0000000000000000e+00
-4.3999999999999995e-01 0.0000000000000000e+00 7.6069567978636921e-01 0.0000000000000000e+00 0.0000000000000000e+00 0.0000000000000000e+00
-4.2999999999999994e-01 0.0000000000000000e+00 7.3841030114778128e-01 0.0000000000000000e+00 0.0000000000000000e+00 0.0000000000000000e+00
-4.2000000000000004e-01 0.0000000000000000e+00 7.1516904048275465e-01 0.0000000000000000e+00 0.0000000000000000e+00 0.0000000000000000e+00
-4.1000000000000003e-01 0.0000000000000000e+00 6.9103956013343315e-01 0.0000000000000000e+00 0.0000000000000000e+00 0.0000000000000000e+00
-4.0000000000000002e-01 0.0000000000000000e+00 6.6609871390572373e-01 0.0000000000000000e+00 0.0000000000000000e+00 0.0000000000000000e+00
-3.9000000000000001e-01 0.0000000000000000e+00 6.4043170901612811e-01 0.0000000000000000e+00 0.0000000000000000e+00 0.0000000000000000e+00
-3.8000000000000000e-01 0.0000000000000000e+00 6.1413109595015702e-01 0.0000000000000000e+00 0.0000000000000000e+00 0.0000000000000000e+00
-3.7000000000000000e-01 0.0000000000000000e+00 5.8729560739289721e-01 0.0000000000000000e+00 0.0000000000000000e+00 0.0000000000000000e+00
-3.5999999999999999e-01 0.0000000000000000e+00 5.6002887290044090e-01 0.0000000000000000e+00 0.0000000000000000e+00 0.0000000000000000e+00
-3.4999999999999998e-01 0.0000000000000000e+00 5.3243804057658506e-01 0.0000000000000000e+00 0.0000000000000000e+00 0.0000000000000000e+00
-3.3999999999999997e-01 0.0000000000000000e+00 5.0463234043146443e-01 0.0000000000000000e+00 0.0000000000000000e+00 0.0000000000000000e+00
-3.2999999999999996e-01 0.0000000000000000e+00 4.7672162612462310e-01 0.0000000000000000e+00 0.0000000000000000e+00 0.0000000000000000e+00
-3.1999999999999995e-01 0.0000000000000000e+00 4.4881493231400521e-01 0.0000000000000000e+00 0.0000000000000000e+00 0.0000000000000000e+00
-3.0999999999999994e-01 0.0000000000000000e+00 4.2101908380967124e-01 0.0000000000000000e+00 0.0000000000000000e+00 0.0000000000000000e+00
-2.9999999999999993e-01 0.0000000000000000e+00 3.9343739023283048e-01 0.0000000000000000e+00 0.0000000000000000e+00 0.0000000000000000e+00
-2.9000000000000004e-01 0.0000000000000000e+00 3.6616845605766879e-01 0.0000000000000000e+00 0.0000000000000000e+00 0.0000000000000000e+00
-2.8000000000000003e-01 0.0000000000000000e+00 3.3930513100406812e-01 0.0000000000000000e+00 0.0000000000000000e+00 0.0000000000000000e+00
-2.7000000000000002e-01 0.0000000000000000e+00 3.1293362004007663e-01 0.0000000000000000e+00 0.0000000000000000e+00 0.0000000000000000e+00
-2.6000000000000001e-01 0.0000000000000000e+00 2.8713276607832683e-01 0.0000000000000000e+00 0.0000000000000000e+00 0.0000000000000000e+00
-2.5000000000000000e-01 0.0000000000000000e+00 2.6197351215054737e-01 0.0000000000000000e+00 0.0000000000000000e+00 0.0000000000000000e+00
-2.3999999999999999e-01 0.0000000000000000e+00 2.3751854374799153e-01 0.0000000000000000e+00 0.0000000000000000e+00 0.0000000000000000e+00
-2.2999999999999998e-01 0.0000000000000000e+00 2.1382210641878557e-01 0.0000000000000000e+00 0.0000000000000000e+00 0.0000000000000000e+00
-2.1999999999999997e-01 0.0000000000000000e+00 1.9092998885725007e-01 0.0000000000000000e+00 0.0000000000000000e+00 0.0000000000000000e+00
-2.0999999999999996e-01 0.0000000000000000e+00 1.6887965778879327e-01 0.0000000000000000e+00 0.0000000000000000e+00 0.0000000000000000e+00
-1.9999999999999996e-01 0.0000000000000000e+00 1.4770052806192230e-01 0.0000000000000000e+00 0.0000000000000000e+00 0.0000000000000000e+00
-1.8999999999999995e-01 0.0000000000000000e+00 1.2741434956121442e-01 0.0000000000000000e+00 0.0000000000000000e+00 0.0000000000000000e+00
-1.7999999999999994e-01 0.0000000000000000e+00 1.0803569185432177e-01 0.0000000000000000e+00 0.0000000000000000e+00 0.0000000000000000e+00
-1.6999999999999993e-01 0.0000000000000000e+00 8.9572507847342372e-02 0.0000000000000000e+00 0.0000000000000000e+00 0.0000000000000000e+00
-1.6000000000000003e-01 0.0000000000000000e+00 7.2026759100932869e-02 0.0000000000000000e+00 0.0000000000000000e+00 0.0000000000000000e+00
-1.5000000000000002e-01 0.0000000000000000e+00 5.5395087804153184e-02 0.0000000000000000e+00 0.0000000000000000e+00 0.0000000000000000e+00
-1.4000000000000001e-01 0.0000000000000000e+00 3.9669523759903673e-02 0.0000000000000000e+00 0.0000000000000000e+00 0.0000000000000000e+00
-1.3000000000000000e-01 0.0000000000000000e+00 2.4838219054650539e-02 0.0000000000000000e+00 0.0000000000000000e+00 0.0000000000000000e+00
-1.2000000000000000e-01 0.0000000000000000e+00 1.0886209110945649e-02 0.0000000000000000e+00 0.0000000000000000e+00 0.0000000000000000e+00
-1.0999999999999999e-01 0.0000000000000000e+00 -2.2037948920886783e-03 0.0000000000000000e+00 0.0000000000000000e+00 0.0000000000000000e+00
-9.9999999999999978e-02 0.0000000000000000e+00 -1.4450563261864897e-02 0.0000000000000000e+00 0.0000000000000000e+00 0.0000000000000000e+00
-8.9999999999999969e-02 0.0000000000000000e+00 -2.5873435478261975e-02 0.0000000000000000e+00 0.0000000000000000e+00 0.0000000000000000e+00
-7.9999999999999960e-02 0.0000000000000000e+00 -3.6491255835392408e-02 0.0000000000000000e+00 0.0000000000000000e+00 0.0000000000000000e+00
-6.9999999999999951e-02 0.0000000000000000e+00 -4.6321182117044515e-02 0.0000000000000000e+00 0.0000000000000000e+00 0.0000000000000000e+00
-5.9999999999999942e-02 0.0000000000000000e+00 -5.5376938236804854e-02 0.0000000000000000e+00 0.0000000000000000e+00 0.0000000000000000e+00
-4.9999999999999933e-02 0.0000000000000000e+00 -6.3667196018140998e-02 0.0000000000000000e+00 0.0000000000000000e+00 0.0000000000000000e+00
-4.0000000000000036e-02 0.0000000000000000e+00 -7.1191084757472545e-02 0.0000000000000000e+00 0.0000000000000000e+00 0.0000000000000000e+00
-3.0000000000000027e-02 0.0000000000000000e+00 -7.7936427970705061e-02 0.0000000000000000e+00 0.0000000000000000e+00 0.0000000000000000e+00
-2.0000000000000018e-02 0.0000000000000000e+00 -8.3855839542170796e-02 0.0000000000000000e+00 0.0000000000000000e+00 0.0000000000000000e+00
-1.0000000000000009e-02 0.0000000000000000e+00 -8.8849456485094278e-02 0.0000000000000000e+00 0.0000000000000000e+00 0.0000000000000000e+00
0.0000000000000000e+00 0.0000000000000000e+00 -9.2473401968234711e-02 0.0000000000000000e+00 0.0000000000000000e+00 0.0000000000000000e+00
1.0000000000000009e-02 0.0000000000000000e+00 -9.3606410190464950e-02 0.0000000000000000e+00 0.0000000000000000e+00 0.0000000000000000e+00
2.0000000000000018e-02 0.0000000000000000e+00 -9.1761045849053147e-02 0.0000000000000000e+00 0.0000000000000000e+00 0.0000000000000000e+00
3.0000000000000027e-02 0.0000000000000000e+00 -8.7368205466575199e-02 0.0000000000000000e+00 0.0000000000000000e+00 0.0000000000000000e+00
4.0000000000000036e-02 0.0000000000000000e+00 -8.0943654008615279e-02 0.0000000000000000e+00 0.0000000000000000e+00 0.0000000000000000e+00
5.0000000000000044e-02 0.0000000000000000e+00 -7.2839990318825626e-02 0.0000000000000000e+00 0.0000000000000000e+00 0.0000000000000000e+00
6.0000000000000053e-02 0.0000000000000000e+00 -6.3309287748829865e-02 0.0000000000000000e+00 0.0000000000000000e+00 0.0000000000000000e+00
7.0000000000000062e-02 0.0000000000000000e+00 -5.2554189642876420e-02 0.0000000000000000e+00 0.0000000000000000e+00 0.0000000000000000e+00
8.0000000000000071e-02 0.0000000000000000e+00 -4.0746919739846121e-02 0.0000000000000000e+00 0.0000000000000000e+00 0.0000000000000000e+00
9.0000000000000080e-02 0.0000000000000000e+00 -2.8036869797926262e-02 0.0000000000000000e+00 0.0000000000000000e+00 0.0000000000000000e+00
1.0000000000000009e-01 0.0000000000000000e+00 -1.4555031438819562e-02 0.0000000000000000e+00 0.0000000000000000e+00 0.0000000000000000e+00
1.1000000000000010e-01 0.0000000000000000e+00 -4.1722081473478934e-04 0.0000000000000000e+00 0.0000000000000000e+00 0.0000000000000000e+00
1.2000000000000011e-01 0.0000000000000000e+00 1.4273450771771053e-02 0.0000000000000000e+00 0.0000000000000000e+00 0.0000000000000000e+00
1.3000000000000012e-01 0.0000000000000000e+00 2.9424690693847934e-02 0.0000000000000000e+00 0.0000000000000000e+00 0.0000000000000000e+00
1.4000000000000012e-01 0.0000000000000000e+00 4.4953579697926849e-02 0.0000000000000000e+00 0.0000000000000000e+00 0.0000000000000000e+00
1.5000000000000013e-01 0.0000000000000000e+00 6.0785454771645209e-02 0.0000000000000000e+00 0.0000000000000000e+00 0.0000000000000000e+00
1.5999999999999992e-01 0.0000000000000000e+00 7.6853027664026338e-02 0.0000000000000000e+00 0.0000000000000000e+00 0.0000000000000000e+00
1.6999999999999993e-01 0.0000000000000000e+00 9.3095671196145341e-02 0.0000000000000000e+00 0.0000000000000000e+00 0.0000000000000000e+00
1.7999999999999994e-01 0.0000000000000000e+00 1.0945882465210610e-01 0.0000000000000000e+00 0.0000000000000000e+00 0.0000000000000000e+00
1.8999999999999995e-01 0.0000000000000000e+00 1.2589348399731112e-01 0.0000000000000000e+00 0.0000000000000000e+00 0.0000000000000000e+00
1.9999999999999996e-01 0.0000000000000000e+00 1.4235575327987779e-01 0.0000000000000000e+00 0.0000000000000000e+00 0.0000000000000000e+00
2.0999999999999996e-01 0.0000000000000000e+00 1.5880644116011919e-01 0.0000000000000000e+00 0.0000000000000000e+00 0.0000000000000000e+00
2.1999999999999997e-01 0.0000000000000000e+00 1.7521069184150528e-01 0.0000000000000000e+00 0.0000000000000000e+00 0.0000000000000000e+00
2.2999999999999998e-01 0.0000000000000000e+00 1.9153764335571516e-01 0.0000000000000000e+00 0.0000000000000000e+00 0.0000000000000000e+00
2.3999999999999999e-01 0.0000000000000000e+00 2.0776010864615971e-01 0.0000000000000000e+00 0.0000000000000000e+00 0.0000000000000000e+00
2.5000000000000000e-01 0.0000000000000000e+00 2.2385427655326440e-01 0.0000000000000000e+00 0.0000000000000000e+00 0.0000000000000000e+00
2.6000000000000001e-01 0.0000000000000000e+00 2.3979943087553623e-01 0.0000000000000000e+00 0.0000000000000000e+00 0.0000000000000000e+00
2.7000000000000002e-01 0.0000000000000000e+00 2.5557768634943107e-01 0.0000000000000000e+00 0.0000000000000000e+00 0.0000000000000000e+00
2.8000000000000003e-01 0.0000000000000000e+00 2.7117374078738066e-01 0.0000000000000000e+00 0.0000000000000000e+00 0.0000000000000000e+00
2.9000000000000004e-01 0.0000000000000000e+00 2.8657464282607809e-01 0.0000000000000000e+00 0.0000000000000000e+00 0.0000000000000000e+00
3.0000000000000004e-01 0.0000000000000000e+00 3.0176957483588074e-01 0.0000000000000000e+00 0.0000000000000000e+00 0.0000000000000000e+00
3.1000000000000005e-01 0.0000000000000000e+00 3.1674965056624294e-01 0.0000000000000000e+00 0.0000000000000000e+00 0.0000000000000000e+00
3.2000000000000006e-01 0.0000000000000000e+00 3.3150772708696657e-01 0.0000000000000000e+00 0.0000000000000000e+00 0.0000000000000000e+00
3.3000000000000007e-01 0.0000000000000000e+00 3.4603823054893712e-01 0.0000000000000000e+00 0.0000000000000000e+00 0.0000000000000000e+00
3.4000000000000008e-01 0.0000000000000000e+00 3.6033699524261542e-01 0.0000000000000000e+00 0.0000000000000000e+00 0.0000000000000000e+00
3.5000000000000009e-01 0.0000000000000000e+00 3.7440111539288451e-01 0.0000000000000000e+00 0.0000000000000000e+00 0.0000000000000000e+00
3.6000000000000010e-01 0.0000000000000000e+00 3.8822880908951568e-01 0.0000000000000000e+00 0.0000000000000000e+00 0.0000000000000000e+00
3.7000000000000011e-01 0.0000000000000000e+00 4.0181929372731062e-01 0.0000000000000000e+00 0.0000000000000000e+00 0.0000000000000000e+00
3.8000000000000012e-01 0.0000000000000000e+00 4.1517267231067756e-01 0.0000000000000000e+00 0.0000000000000000e+00 0.0000000000000000e+00
3.9000000000000012e-01 0.0000000000000000e+00 4.2828982997017256e-01 0.0000000000000000e+00 0.0000000000000000e+00 0.0000000000000000e+00
4.0000000000000013e-01 0.0000000000000000e+00 4.4117234003789035e-01 0.0000000000000000e+00 0.0000000000000000e+00 0.0000000000000000e+00
4.0999999999999992e-01 0.0000000000000000e+00 4.5382237903784628e-01 0.0000000000000000e+00 0.0000000000000000e+00 0.0000000000000000e+00
4.1999999999999993e-01 0.0000000000000000e+00 4.6624264996287634e-01 0.0000000000000000e+00 0.0000000000000000e+00 0.0000000000000000e+00
4.2999999999999994e-01 0.0000000000000000e+00 4.7843631322883012e-01 0.0000000000000000e+00 0.0000000000000000e+00 0.0000000000000000e+00
4.3999999999999995e-01 0.0000000000000000e+00 4.9040692472278574e-01 0.0000000000000000e+00 0.0000000000000000e+00 0.0000000000000000e+00
4.4999999999999996e-01 0.0000000000000000e+00 5.0215838039026139e-01 0.0000000000000000e+00 0.0000000000000000e+00 0.0000000000000000e+00
4.5999999999999996e-01 0.0000000000000000e+00 5.1369486683521470e-01 0.0000000000000000e+00 0.0000000000000000e+00 0.0000000000000000e+00
4.6999999999999997e-01 0.0000000000000000e+00 5.2502081744031348e-01 0.0000000000000000e+00 0.0000000000000000e+00 0.0000000000000000e+00
4.7999999999999998e-01 0.0000000000000000e+00 5.3614087354588880e-01 0.0000000000000000e+00 0.0000000000000000e+00 0.0000000000000000e+00
4.8999999999999999e-01 0.0000000000000000e+00 5.4705985025947856e-01 0.0000000000000000e+00 0.0000000000000000e+00 0.0000000000000000e+00
5.0000000000000000e-01 0.0000000000000000e+00 5.5778270650042072e-01 0.0000000000000000e+00 0.0000000000000000e+00 0.0000000000000000e+00
5.1000000000000001e-01 0.0000000000000000e+00 5.6831451891531803e-01 0.0000000000000000e+00 0.0000000000000000e+00 0.0000000000000000e+00
5.2000000000000002e-01 0.0000000000000000e+00 5.7866045933168364e-01 0.0000000000000000e+00 0.0000000000000000e+00 0.0000000000000000e+00
5.3000000000000003e-01 0.0000000000000000e+00 5.8882577544760528e-01 0.0000000000000000e+00 0.0000000000000000e+00 0.0000000000000000e+00
5.4000000000000004e-01 0.0000000000000000e+00 5.9881577448301249e-01 0.0000000000000000e+00 0.0000000000000000e+00 0.0000000000000000e+00
5.5000000000000004e-01 0.0000000000000000e+00 6.0863580954778396e-01 0.0000000000000000e+00 0.0000000000000000e+00 0.0000000000000000e+00
5.6000000000000005e-01 0.0000000000000000e+00 6.1829126850746030e-01 0.0000000000000000e+00 0.0000000000000000e+00 0.0000000000000000e+00
5.7000000000000006e-01 0.0000000000000000e+00 6.2778756515380996e-01 0.0000000000000000e+00 0.0000000000000000e+00 0.0000000000000000e+00
5.8000000000000007e-01 0.0000000000000000e+00 6.3713013251287975e-01 0.0000000000000000e+00 0.0000000000000000e+00 0.0000000000000000e+00
5.9000000000000008e-01 0.0000000000000000e+00 6.4632441814673303e-01 0.0000000000000000e+00 0.0000000000000000e+00 0.0000000000000000e+00
6.0000000000000009e-01 0.0000000000000000e+00 6.5537588132971591e-01 0.0000000000000000e+00 0.0000000000000000e+00 0.0000000000000000e+00
6.1000000000000010e-01 0.0000000000000000e+00 6.6428999200346273e-01 0.0000000000000000e+00 0.0000000000000000e+00 0.0000000000000000e+00
6.2000000000000011e-01 0.0000000000000000e+00 6.7307223143873762e-01 0.0000000000000000e+00 0.0000000000000000e+00 0.0000000000000000e+00
6.3000000000000012e-01 0.0000000000000000e+00 6.8172809455649519e-01 0.0000000000000000e+00 0.0000000000000000e+00 0.0000000000000000e+00
6.4000000000000012e-01 0.0000000000000000e+00 6.9026309388646201e-01 0.0000000000000000e+00 0.0000000000000000e+00 0.0000000000000000e+00
6.5000000000000013e-01 0.0000000000000000e+00 6.9868276516739147e-01 0.0000000000000000e+00 0.0000000000000000e+00 0.0000000000000000e+00
6.6000000000000014e-01 0.0000000000000000e+00 7.0699267462428683e-01 0.0000000000000000e+00 0.0000000000000000e+00 0.0000000000000000e+00
6.6999999999999993e-01 0.0000000000000000e+00 7.1519842798838362e-01 0.0000000000000000e+00 0.0000000000000000e+00 0.0000000000000000e+00
6.7999999999999994e-01 0.0000000000000000e+00 7.2330568136473894e-01 0.0000000000000000e+00 0.0000000000000000e+00 0.0000000000000000e+00
6.8999999999999995e-01 0.0000000000000000e+00 7.3132015409405682e-01 0.0000000000000000e+00 0.0000000000000000e+00 0.0000000000000000e+00
6.9999999999999996e-01 0.0000000000000000e+00 7.3924764380654673e-01 0.0000000000000000e+00 0.0000000000000000e+00 0.0000000000000000e+00
7.0999999999999996e-01 0.0000000000000000e+00 7.4709404392722734e-01 0.0000000000000000e+00 0.0000000000000000e+00 0.0000000000000000e+00
7.1999999999999997e-01 0.0000000000000000e+00 7.5486536396681136e-01 0.0000000000000000e+00 0.0000000000000000e+00 0.0000000000000000e+00
7.2999999999999998e-01 0.0000000000000000e+00 7.6256775302559410e-01 0.0000000000000000e+00 0.0000000000000000e+00 0.0000000000000000e+00
7.3999999999999999e-01 0.0000000000000000e+00 7.7020752705603013e-01 0.0000000000000000e+00 0.0000000000000000e+00 0.0000000000000000e+00
7.5000000000000000e-01 0.0000000000000000e+00 7.7779120057913154e-01 0.0000000000000000e+00 0.0000000000000000e+00 0.0000000000000000e+00
7.6000000000000001e-01 0.0000000000000000e+00 7.8532552374546449e-01 0.0000000000000000e+00 0.0000000000000000e+00 0.0000000000000000e+00
7.7000000000000002e-01 0.0000000000000000e+00 7.9281752588608079e-01 0.0000000000000000e+00 0.0000000000000000e+00 0.0000000000000000e+00
7.8000000000000003e-01 0.0000000000000000e+00 8.0027456703832356e-01 0.0000000000000000e+00 0.0000000000000000e+00 0.0000000000000000e+00
7.9000000000000004e-01 0.0000000000000000e+00 8.0770439938756200e-01 0.0000000000000000e+00 0.0000000000000000e+00 0.0000000000000000e+00
8.0000000000000004e-01 0.0000000000000000e+00 8.1511524118928336e-01 0.0000000000000000e+00 0.0000000000000000e+00 0.0000000000000000e+00
8.1000000000000005e-01 0.0000000000000000e+00 8.2251586659986908e-01 0.0000000000000000e+00 0.0000000000000000e+00 0.0000000000000000e+00
8.2000000000000006e-01 0.0000000000000000e+00 8.2991571606092152e-01 0.0000000000000000e+00 0.0000000000000000e+00 0.0000000000000000e+00
8.3000000000000007e-01 0.0000000000000000e+00 8.3732503362607735e-01 0.0000000000000000e+00 0.0000000000000000e+00 0.0000000000000000e+00
8.4000000000000008e-01 0.0000000000000000e+00 8.4475504016691982e-01 0.0000000000000000e+00 0.0000000000000000e+00 0.0000000000000000e+00
8.5000000000000009e-01 0.0000000000000000e+00 8.5221815519253219e-01 0.0000000000000000e+00 0.0000000000000000e+00 0.0000000000000000e+00
8.6000000000000010e-01 0.0000000000000000e+00 8.5972828580270366e-01 0.0000000000000000e+00 0.0000000000000000e+00 0.0000000000000000e+00
8.7000000000000011e-01 0.0000000000000000e+00 8.6730121030439244e-01 0.0000000000000000e+00 0.0000000000000000e+00 0.0000000000000000e+00
8.8000000000000012e-01 0.0000000000000000e+00 8.7495509834471841e-01 0.0000000000000000e+00 0.0000000000000000e+00 0.0000000000000000e+00
8.9000000000000012e-01 0.0000000000000000e+00 8.8271123255475836e-01 0.0000000000000000e+00 0.0000000000000000e+00 0.0000000000000000e+00
9.0000000000000013e-01 0.0000000000000000e+00 8.9059503419351382e-01 0.0000000000000000e+00 0.0000000000000000e+00 0.0000000000000000e+00
9.1000000000000014e-01 0.0000000000000000e+00 8.9863755435330828e-01 0.0000000000000000e+00 0.0000000000000000e+00 0.0000000000000000e+00
9.1999999999999993e-01 0.0000000000000000e+00 9.0687767566501043e-01 0.0000000000000000e+00 0.0000000000000000e+00 0.0000000000000000e+00
9.2999999999999994e-01 0.0000000000000000e+00 9.1536534800781610e-01 0.0000000000000000e+00 0.0000000000000000e+00 0.0000000000000000e+00
9.3999999999999995e-01 0.0000000000000000e+00 9.2416613313891571e-01 0.0000000000000000e+00 0.0000000000000000e+00 0.0000000000000000e+00
9.4999999999999996e-01 0.0000000000000000e+00 9.3336720871948387e-01 0.0000000000000000e+00 0.0000000000000000e+00 0.0000000000000000e+00
9.5999999999999996e-01 0.0000000000000000e+00 9.4308944855315835e-01 0.0000000000000000e+00 0.0000000000000000e+00 0.0000000000000000e+00
9.6999999999999997e-01 0.0000000000000000e+00 9.5355332593479658e-01 0.0000000000000000e+00 0.0000000000000000e+00 0.0000000000000000e+00
9.7999999999999998e-01 0.0000000000000000e+00 9.6541554153817488e-01 0.0000000000000000e+00 0.0000000000000000e+00 0.0000000000000000e+00
9.8999999999999999e-01 0.0000000000000000e+00 9.8056979207311012e-01 0.0000000000000000e+00 0.0000000000000000e+00 0.0000000000000000e+00
1.0000000000000000e+00 0.0000000000000000e+00 1.0000000000000000e+00 0.0000000000000000e+00 0.0000000000000000e+00 0.0000000000000000e+00
-1.0000000000000000e+00 9.3654896513889301e-03 1.0000000000000000e+00 9.3654896513889301e-03 -0.0000000000000000e+00 3.4452033152354978e-04
-9.8999999999999999e-01 9.3654896513889301e-03 9.9999966408717367e-01 7.3564319634518718e-02 -3.7093315688939611e-06 2.7061482882563557e-03
-9.7999999999999998e-01 9.3654896513889301e-03 9.9999969709861558e-01 7.3564322136114607e-02 1.8718966546863669e-12 2.7061483802804445e-03
-9.6999999999999997e-01 9.3654896513889301e-03 9.9999955434376864e-01 7.3564311533110535e-02 1.6697947770614427e-11 2.7061479902367185e-03
-9.5999999999999996e-01 9.3654896513889301e-03 9.9999926439909681e-01 7.3564290004108496e-02 5.1063336718410591e-11 2.7061471982675637e-03
-9.4999999999999996e-01 9.3654896513889301e-03 9.9999880979931022e-01 7.3564256229110239e-02 1.1774969985109864e-10 2.7061459558153237e-03
-9.3999999999999995e-01 9.3654896513889301e-03 9.9999816545689146e-01 7.3564208325426567e-02 2.3233586513811947e-10 2.7061441936231056e-03
-9.2999999999999994e-01 9.3654896513889301e-03 9.9999730357953776e-01 7.3564144209054244e-02 4.1357264249364594e-10 2.7061418350284492e-03
-9.2000000000000004e-01 9.3654896513889301e-03 9.9999619468048573e-01 7.3564061668550895e-02 6.8366188906707204e-10 2.7061387986808969e-03
-9.1000000000000003e-01 9.3654896513889301e-03 9.9999480761044524e-01 7.3563958366831730e-02 1.0687072731579559e-09 2.7061349986080918e-03
-9.0000000000000002e-01 9.3654896513889301e-03 9.9999310911680894e-01 7.3563831807867602e-02 1.5996389603714392e-09 2.7061303429907241e-03
-8.9000000000000001e-01 9.3654896513889301e-03 9.9999106263537696e-01 7.3563679245775851e-02 2.3147091801319264e-09 2.7061247308183354e-03
-8.8000000000000000e-01 9.3654896513889301e-03 9.9998862494974861e-01 7.3563497433358341e-02 3.2667917644149078e-09 2.7061180426389995e-03
-8.7000000000000000e-01 9.3654896513889301e-03 9.9998573738595431e-01 7.3563281958735849e-02 4.5430747071031732e-09 2.7061101161566545e-03