variables="x","y","tau","u","v","psi"
zone i=201, j=101, f=point
-1.0000000000000000e+00 0.0000000000000000e+00 1.0000000000000000e+00 0.0000000000000000e+00 0.0000000000000000e+00 0.0000000000000000e+00
-9.8999999999999999e-01 0.0000000000000000e+00 9.9999963834160932e-01 0.0000000000000000e+00 0.0000000000000000e+00 0.0000000000000000e+00
-9.7999999999999998e-01 0.0000000000000000e+00 9.9999953428548949e-01 0.0000000000000000e+00 0.0000000000000000e+00 0.0000000000000000e+00
-9.6999999999999997e-01 0.0000000000000000e+00 9.9999905504151820e-01 0.0000000000000000e+00 0.0000000000000000e+00 0.0000000000000000e+00
-9.5999999999999996e-01 0.0000000000000000e+00 9.9999816408737641e-01 0.0000000000000000e+00 0.0000000000000000e+00 0.0000000000000000e+00
-9.4999999999999996e-01 0.0000000000000000e+00 9.9999678076957088e-01 0.0000000000000000e+00 0.0000000000000000e+00 0.0000000000000000e+00
-9.3999999999999995e-01 0.0000000000000000e+00 9.9999481844266280e-01 0.0000000000000000e+00 0.0000000000000000e+00 0.0000000000000000e+00
-9.2999999999999994e-01 0.0000000000000000e+00 9.9999218746504925e-01 0.0000000000000000e+00 0.0000000000000000e+00 0.0000000000000000e+00
-9.2000000000000004e-01 0.0000000000000000e+00 9.9998879487778358e-01 0.0000000000000000e+00 0.0000000000000000e+00 0.0000000000000000e+00
-9.1000000000000003e-01 0.0000000000000000e+00 9.9998454336019527e-01 0.0000000000000000e+00 0.0000000000000000e+00 0.0000000000000000e+00
-9.0000000000000002e-01 0.0000000000000000e+00 9.9997932986187865e-01 0.0000000000000000e+00 0.0000000000000000e+00 0.0000000000000000e+00
-8.9000000000000001e-01 0.0000000000000000e+00 9.9997304376890561e-01 0.0000000000000000e+00 0.0000000000000000e+00 0.0000000000000000e+00
-8.8000000000000000e-01 0.0000000000000000e+00 9.9996556393546576e-01 0.0000000000000000e+00 0.0000000000000000e+00 0.0000000000000000e+00
-8.7000000000000000e-01 0.0000000000000000e+00 9.9995675301351139e-01 0.0000000000000000e+00 0.0000000000000000e+00 0.0000000000000000e+00
-8.5999999999999999e-01 0.0000000000000000e+00 9.9994644618034423e-01 0.0000000000000000e+00 0.0000000000000000e+00 0.0000000000000000e+00
-8.4999999999999998e-01 0.0000000000000000e+00 9.9993442987299264e-01 0.0000000000000000e+00 0.0000000000000000e+00 0.0000000000000000e+00
-8.3999999999999997e-01 0.0000000000000000e+00 9.9992040509477720e-01 0.0000000000000000e+00 0.0000000000000000e+00 0.0000000000000000e+00
-8.2999999999999996e-01 0.0000000000000000e+00 9.9990392990842059e-01 0.0000000000000000e+00 0.0000000000000000e+00 0.0000000000000000e+00
-8.2000000000000006e-01 0.0000000000000000e+00 9.9988433719051850e-01 0.0000000000000000e+00 0.0000000000000000e+00 0.0000000000000000e+00
-8.1000000000000005e-01 0.0000000000000000e+00 9.9986062639210027e-01 0.0000000000000000e+00 0.0000000000000000e+00 0.0000000000000000e+00
-8.0000000000000004e-01 0.0000000000000000e+00 9.9983133128949797e-01 0.0000000000000000e+00 0.0000000000000000e+00 0.0000000000000000e+00
-7.9000000000000004e-01 0.0000000000000000e+00 9.9979436875129235e-01 0.0000000000000000e+00 0.0000000000000000e+00 0.0000000000000000e+00
-7.8000000000000003e-01 0.0000000000000000e+00 9.9974687576716781e-01 0.0000000000000000e+00 0.0000000000000000e+00 0.0000000000000000e+00
-7.7000000000000002e-01 0.0000000000000000e+00 9.9968504308234885e-01 0.0000000000000000e+00 0.0000000000000000e+00 0.0000000000000000e+00
-7.6000000000000001e-01 0.0000000000000000e+00 9.9960395375825972e-01 0.0000000000000000e+00 0.0000000000000000e+00 0.0000000000000000e+00
-7.5000000000000000e-01 0.0000000000000000e+00 9.9949743406941238e-01 0.0000000000000000e+00 0.0000000000000000e+00 0.0000000000000000e+00
-7.3999999999999999e-01 0.0000000000000000e+00 9.9935792266766799e-01 0.0000000000000000e+00 0.0000000000000000e+00 0.0000000000000000e+00
-7.2999999999999998e-01 0.0000000000000000e+00 9.9917636222867057e-01 0.0000000000000000e+00 0.0000000000000000e+00 0.0000000000000000e+00
-7.1999999999999997e-01 0.0000000000000000e+00 9.9894211609830463e-01 0.0000000000000000e+00 0.0000000000000000e+00 0.0000000000000000e+00
-7.0999999999999996e-01 0.0000000000000000e+00 9.9864291096398305e-01 0.0000000000000000e+00 0.0000000000000000e+00 0.0000000000000000e+00
-6.9999999999999996e-01 0.0000000000000000e+00 9.9826480537886531e-01 0.0000000000000000e+00 0.0000000000000000e+00 0.0000000000000000e+00
-6.8999999999999995e-01 0.0000000000000000e+00 9.9779218309946494e-01 0.0000000000000000e+00 0.0000000000000000e+00 0.0000000000000000e+00
-6.7999999999999994e-01 0.0000000000000000e+00 9.9720776964312430e-01 0.0000000000000000e+00 0.0000000000000000e+00 0.0000000000000000e+00
-6.6999999999999993e-01 0.0000000000000000e+00 9.9649267018690046e-01 0.0000000000000000e+00 0.0000000000000000e+00 0.0000000000000000e+00
-6.5999999999999992e-01 0.0000000000000000e+00 9.9562642686014080e-01 0.0000000000000000e+00 0.0000000000000000e+00 0.0000000000000000e+00
-6.4999999999999991e-01 0.0000000000000000e+00 9.9458709357099406e-01 0.0000000000000000e+00 0.0000000000000000e+00 0.0000000000000000e+00
-6.4000000000000001e-01 0.0000000000000000e+00 9.9335132669893211e-01 0.0000000000000000e+00 0.0000000000000000e+00 0.0000000000000000e+00
-6.3000000000000000e-01 0.0000000000000000e+00 9.9189449023693244e-01 0.0000000000000000e+00 0.0000000000000000e+00 0.0000000000000000e+00
-6.2000000000000000e-01 0.0000000000000000e+00 9.9019077424130852e-01 0.0000000000000000e+00 0.0000000000000000e+00 0.0000000000000000e+00
-6.0999999999999999e-01 0.0000000000000000e+00 9.8821332571559228e-01 0.0000000000000000e+00 0.0000000000000000e+00 0.0000000000000000e+00
-5.9999999999999998e-01 0.0000000000000000e+00 9.8593439129984528e-01 0.0000000000000000e+00 0.0000000000000000e+00 0.0000000000000000e+00
-5.8999999999999997e-01 0.0000000000000000e+00 9.8332547134145476e-01 0.0000000000000000e+00 0.0000000000000000e+00 0.0000000000000000e+00
-5.8000000000000007e-01 0.0000000000000000e+00 9.8035748508151255e-01 0.0000000000000000e+00 0.0000000000000000e+00 0.0000000000000000e+00
-5.7000000000000006e-01 0.0000000000000000e+00 9.7700094679724492e-01 0.0000000000000000e+00 0.0000000000000000e+00 0.0000000000000000e+00
-5.6000000000000005e-01 0.0000000000000000e+00 9.7322615279167424e-01 0.0000000000000000e+00 0.0000000000000000e+00 0.0000000000000000e+00
-5.5000000000000004e-01 0.0000000000000000e+00 9.6900337911959555e-01 0.0000000000000000e+00 0.0000000000000000e+00 0.0000000000000000e+00
-5.4000000000000004e-01 0.0000000000000000e+00 9.6430308988381996e-01 0.0000000000000000e+00 0.0000000000000000e+00 0.0000000000000000e+00
-5.3000000000000003e-01 0.0000000000000000e+00 9.5909615582931385e-01 0.0000000000000000e+00 0.0000000000000000e+00 0.0000000000000000e+00
-5.2000000000000002e-01 0.0000000000000000e+00 9.5335408281098377e-01 0.0000000000000000e+00 0.0000000000000000e+00 0.0000000000000000e+00
-5.1000000000000001e-01 0.0000000000000000e+00 9.4704924951449065e-01 0.0000000000000000e+00 0.0000000000000000e+00 0.0000000000000000e+00
-5.0000000000000000e-01 0.0000000000000000e+00 9.4015515357574353e-01 0.0000000000000000e+00 0.0000000000000000e+00 0.0000000000000000e+00
-4.8999999999999999e-01 0.0000000000000000e+00 9.3264666497656501e-01 0.0000000000000000e+00 0.0000000000000000e+00 0.0000000000000000e+00
-4.7999999999999998e-01 0.0000000000000000e+00 9.2450028529938288e-01 0.0000000000000000e+00 0.0000000000000000e+00 0.0000000000000000e+00
-4.6999999999999997e-01 0.0000000000000000e+00 9.1569441110803895e-01 0.0000000000000000e+00 0.0000000000000000e+00 0.0000000000000000e+00
-4.5999999999999996e-01 0.0000000000000000e+00 9.0620959939422041e-01 0.0000000000000000e+00 0.0000000000000000e+00 0.0000000000000000e+00
-4.4999999999999996e-01 0.0000000000000000e+00 8.9602883269561040e-01 0.0000000000000000e+00 0.0000000000000000e+00 0.0000000000000000e+00
-4.3999999999999995e-01 0.0000000000000000e+00 8.8513778116648434e-01 0.0000000000000000e+00 0.0000000000000000e+00 0.0000000000000000e+00
-4.2999999999999994e-01 0.0000000000000000e+00 8.7352505857075935e-01 0.0000000000000000e+00 0.0000000000000000e+00 0.0000000000000000e+00
-4.2000000000000004e-01 0.0000000000000000e+00 8.6118246888640015e-01 0.0000000000000000e+00 0.0000000000000000e+00 0.0000000000000000e+00
-4.1000000000000003e-01 0.0000000000000000e+00 8.4810523996902676e-01 0.0000000000000000e+00 0.0000000000000000e+00 0.0000000000000000e+00
-4.0000000000000002e-01 0.0000000000000000e+00 8.3429224053617446e-01 0.0000000000000000e+00 0.0000000000000000e+00 0.0000000000000000e+00
-3.9000000000000001e-01 0.0000000000000000e+00 8.1974617661392968e-01 0.0000000000000000e+00 0.0000000000000000e+00 0.0000000000000000e+00
-3.8000000000000000e-01 0.0000000000000000e+00 8.0447376354955313e-01 0.0000000000000000e+00 0.0000000000000000e+00 0.0000000000000000e+00
-3.7000000000000000e-01 0.0000000000000000e+00 7.8848586974870971e-01 0.0000000000000000e+00 0.0000000000000000e+00 0.0000000000000000e+00
-3.5999999999999999e-01 0.0000000000000000e+00 7.7179762845621658e-01 0.0000000000000000e+00 0.0000000000000000e+00 0.0000000000000000e+00
-3.4999999999999998e-01 0.0000000000000000e+00 7.5442851417610557e-01 0.0000000000000000e+00 0.0000000000000000e+00 0.0000000000000000e+00
-3.3999999999999997e-01 0.0000000000000000e+00 7.3640238072668485e-01 0.0000000000000000e+00 0.0000000000000000e+00 0.0000000000000000e+00
-3.2999999999999996e-01 0.0000000000000000e+00 7.1774745845787125e-01 0.0000000000000000e+00 0.0000000000000000e+00 0.0000000000000000e+00
-3.1999999999999995e-01 0.0000000000000000e+00 6.9849630882204017e-01 0.0000000000000000e+00 0.0000000000000000e+00 0.0000000000000000e+00
-3.0999999999999994e-01 0.0000000000000000e+00 6.7868573528753529e-01 0.0000000000000000e+00 0.0000000000000000e+00 0.0000000000000000e+00
-2.9999999999999993e-01 0.0000000000000000e+00 6.5835665051521552e-01 0.0000000000000000e+00 0.0000000000000000e+00 0.0000000000000000e+00
-2.9000000000000004e-01 0.0000000000000000e+00 6.3755390077355756e-01 0.0000000000000000e+00 0.0000000000000000e+00 0.0000000000000000e+00
-2.8000000000000003e-01 0.0000000000000000e+00 6.1632604974819116e-01 0.0000000000000000e+00 0.0000000000000000e+00 0.0000000000000000e+00
-2.7000000000000002e-01 0.0000000000000000e+00 5.9472512519309750e-01 0.0000000000000000e+00 0.0000000000000000e+00 0.0000000000000000e+00
-2.6000000000000001e-01 0.0000000000000000e+00 5.7280633327746522e-01 0.0000000000000000e+00 0.0000000000000000e+00 0.0000000000000000e+00
-2.5000000000000000e-01 0.0000000000000000e+00 5.5062774700065942e-01 0.0000000000000000e+00 0.0000000000000000e+00 0.0000000000000000e+00
-2.3999999999999999e-01 0.0000000000000000e+00 5.2824997669374463e-01 0.0000000000000000e+00 0.0000000000000000e+00 0.0000000000000000e+00
-2.2999999999999998e-01 0.0000000000000000e+00 5.0573583242481257e-01 0.0000000000000000e+00 0.0000000000000000e+00 0.0000000000000000e+00
-2.1999999999999997e-01 0.0000000000000000e+00 4.8314999013216647e-01 0.0000000000000000e+00 0.0000000000000000e+00 0.0000000000000000e+00
-2.0999999999999996e-01 0.0000000000000000e+00 4.6055867561106817e-01 0.0000000000000000e+00 0.0000000000000000e+00 0.0000000000000000e+00
-1.9999999999999996e-01 0.0000000000000000e+00 4.3802938321451285e-01 0.0000000000000000e+00 0.0000000000000000e+00 0.0000000000000000e+00
-1.8999999999999995e-01 0.0000000000000000e+00 4.1563064951111850e-01 0.0000000000000000e+00 0.0000000000000000e+00 0.0000000000000000e+00
-1.7999999999999994e-01 0.0000000000000000e+00 3.9343190648510834e-01 0.0000000000000000e+00 0.0000000000000000e+00 0.0000000000000000e+00
-1.6999999999999993e-01 0.0000000000000000e+00 3.7150344462226920e-01 0.0000000000000000e+00 0.0000000000000000e+00 0.0000000000000000e+00
-1.6000000000000003e-01 0.0000000000000000e+00 3.4991652405358015e-01 0.0000000000000000e+00 0.0000000000000000e+00 0.0000000000000000e+00
-1.5000000000000002e-01 0.0000000000000000e+00 3.2874368274129528e-01 0.0000000000000000e+00 0.0000000000000000e+00 0.0000000000000000e+00
-1.4000000000000001e-01 0.0000000000000000e+00 3.0805930574372759e-01 0.0000000000000000e+00 0.0000000000000000e+00 0.0000000000000000e+00
-1.3000000000000000e-01 0.0000000000000000e+00 2.8794054052489404e-01 0.0000000000000000e+00 0.0000000000000000e+00 0.0000000000000000e+00
-1.2000000000000000e-01 0.0000000000000000e+00 2.6846867205922187e-01 0.0000000000000000e+00 0.0000000000000000e+00 0.0000000000000000e+00
-1.0999999999999999e-01 0.0000000000000000e+00 2.4973111003337448e-01 0.0000000000000000e+00 0.0000000000000000e+00 0.0000000000000000e+00
-9.9999999999999978e-02 0.0000000000000000e+00 2.3182418937416457e-01 0.0000000000000000e+00 0.0000000000000000e+00 0.0000000000000000e+00
-8.9999999999999969e-02 0.0000000000000000e+00 2.1485704051006302e-01 0.0000000000000000e+00 0.0000000000000000e+00 0.0000000000000000e+00
-7.9999999999999960e-02 0.0000000000000000e+00 1.9895682994130515e-01 0.0000000000000000e+00 0.0000000000000000e+00 0.0000000000000000e+00
-6.9999999999999951e-02 0.0000000000000000e+00 1.8427565491871126e-01 0.0000000000000000e+00 0.0000000000000000e+00 0.0000000000000000e+00
-5.9999999999999942e-02 0.0000000000000000e+00 1.7099917364350470e-01 0.0000000000000000e+00 0.0000000000000000e+00 0.0000000000000000e+00
-4.9999999999999933e-02 0.0000000000000000e+00 1.5935638429604232e-01 0.0000000000000000e+00 0.0000000000000000e+00 0.0000000000000000e+00
-4.0000000000000036e-02 0.0000000000000000e+00 1.4962827954581157e-01 0.0000000000000000e+00 0.0000000000000000e+00 0.0000000000000000e+00
-3.0000000000000027e-02 0.0000000000000000e+00 1.4214955203527027e-01 0.0000000000000000e+00 0.0000000000000000e+00 0.0000000000000000e+00
-2.0000000000000018e-02 0.0000000000000000e+00 1.3729168135618983e-01 0.0000000000000000e+00 0.0000000000000000e+00 0.0000000000000000e+00
-1.0000000000000009e-02 0.0000000000000000e+00 1.3541067513412938e-01 0.0000000000000000e+00 0.0000000000000000e+00 0.0000000000000000e+00
0.0000000000000000e+00 0.0000000000000000e+00 1.3675097348972437e-01 0.0000000000000000e+00 0.0000000000000000e+00 0.0000000000000000e+00
1.0000000000000009e-02 0.0000000000000000e+00 1.4133512024190067e-01 0.0000000000000000e+00 0.0000000000000000e+00 0.0000000000000000e+00
2.0000000000000018e-02 0.0000000000000000e+00 1.4891381980622234e-01 0.0000000000000000e+00 0.0000000000000000e+00 0.0000000000000000e+00
3.0000000000000027e-02 0.0000000000000000e+00 1.5902647090526206e-01 0.0000000000000000e+00 0.0000000000000000e+00 0.0000000000000000e+00
4.0000000000000036e-02 0.0000000000000000e+00 1.7112920106089455e-01 0.0000000000000000e+00 0.0000000000000000e+00 0.0000000000000000e+00
5.0000000000000044e-02 0.0000000000000000e+00 1.8470549601432862e-01 0.0000000000000000e+00 0.0000000000000000e+00 0.0000000000000000e+00
6.0000000000000053e-02 0.0000000000000000e+00 1.9932012508076258e-01 0.0000000000000000e+00 0.0000000000000000e+00 0.0000000000000000e+00
7.0000000000000062e-02 0.0000000000000000e+00 2.1462839627829533e-01 0.0000000000000000e+00 0.0000000000000000e+00 0.0000000000000000e+00
8.0000000000000071e-02 0.0000000000000000e+00 2.3036510758648202e-01 0.0000000000000000e+00 0.0000000000000000e+00 0.0000000000000000e+00
9.0000000000000080e-02 0.0000000000000000e+00 2.4632869471642910e-01 0.0000000000000000e+00 0.0000000000000000e+00 0.0000000000000000e+00
1.0000000000000009e-01 0.0000000000000000e+00 2.6236675396791559e-01 0.0000000000000000e+00 0.0000000000000000e+00 0.0000000000000000e+00
1.1000000000000010e-01 0.0000000000000000e+00 2.7836442564132341e-01 0.0000000000000000e+00 0.0000000000000000e+00 0.0000000000000000e+00
1.2000000000000011e-01 0.0000000000000000e+00 2.9423548421700174e-01 0.0000000000000000e+00 0.0000000000000000e+00 0.0000000000000000e+00
1.3000000000000012e-01 0.0000000000000000e+00 3.0991560174751182e-01 0.0000000000000000e+00 0.0000000000000000e+00 0.0000000000000000e+00
1.4000000000000012e-01 0.0000000000000000e+00 3.2535726516779828e-01 0.0000000000000000e+00 0.0000000000000000e+00 0.0000000000000000e+00
1.5000000000000013e-01 0.0000000000000000e+00 3.4052593019726235e-01 0.0000000000000000e+00 0.0000000000000000e+00 0.0000000000000000e+00
1.5999999999999992e-01 0.0000000000000000e+00 3.5539709594419588e-01 0.0000000000000000e+00 0.0000000000000000e+00 0.0000000000000000e+00
1.6999999999999993e-01 0.0000000000000000e+00 3.6995406608823039e-01 0.0000000000000000e+00 0.0000000000000000e+00 0.0000000000000000e+00
1.7999999999999994e-01 0.0000000000000000e+00 3.8418622428896826e-01 0.0000000000000000e+00 0.0000000000000000e+00 0.0000000000000000e+00
1.8999999999999995e-01 0.0000000000000000e+00 3.9808769701594726e-01 0.0000000000000000e+00 0.0000000000000000e+00 0.0000000000000000e+00
1.9999999999999996e-01 0.0000000000000000e+00 4.1165631025603749e-01 0.0000000000000000e+00 0.0000000000000000e+00 0.0000000000000000e+00
2.0999999999999996e-01 0.0000000000000000e+00 4.2489277076623133e-01 0.0000000000000000e+00 0.0000000000000000e+00 0.0000000000000000e+00
2.1999999999999997e-01 0.0000000000000000e+00 4.3780002017599012e-01 0.0000000000000000e+00 0.0000000000000000e+00 0.0000000000000000e+00
2.2999999999999998e-01 0.0000000000000000e+00 4.5038272312599986e-01 0.0000000000000000e+00 0.0000000000000000e+00 0.0000000000000000e+00
2.3999999999999999e-01 0.0000000000000000e+00 4.6264686008439670e-01 0.0000000000000000e+00 0.0000000000000000e+00 0.0000000000000000e+00
2.5000000000000000e-01 0.0000000000000000e+00 4.7459940246394600e-01 0.0000000000000000e+00 0.0000000000000000e+00 0.0000000000000000e+00
2.6000000000000001e-01 0.0000000000000000e+00 4.8624805284976380e-01 0.0000000000000000e+00 0.0000000000000000e+00 0.0000000000000000e+00
2.7000000000000002e-01 0.0000000000000000e+00 4.9760103703341957e-01 0.0000000000000000e+00 0.0000000000000000e+00 0.0000000000000000e+00
2.8000000000000003e-01 0.0000000000000000e+00 5.0866693747907799e-01 0.0000000000000000e+00 0.0000000000000000e+00 0.0000000000000000e+00
2.9000000000000004e-01 0.0000000000000000e+00 5.1945456007764879e-01 0.0000000000000000e+00 0.0000000000000000e+00 0.0000000000000000e+00
3.0000000000000004e-01 0.0000000000000000e+00 5.2997282774996357e-01 0.0000000000000000e+00 0.0000000000000000e+00 0.0000000000000000e+00
3.1000000000000005e-01 0.0000000000000000e+00 5.4023069578210803e-01 0.0000000000000000e+00 0.0000000000000000e+00 0.0000000000000000e+00
3.2000000000000006e-01 0.0000000000000000e+00 5.5023708479910172e-01 0.0000000000000000e+00 0.0000000000000000e+00 0.0000000000000000e+00
3.3000000000000007e-01 0.0000000000000000e+00 5.6000082808859764e-01 0.0000000000000000e+00 0.0000000000000000e+00 0.0000000000000000e+00
3.4000000000000008e-01 0.0000000000000000e+00 5.6953063061873888e-01 0.0000000000000000e+00 0.0000000000000000e+00 0.0000000000000000e+00
3.5000000000000009e-01 0.0000000000000000e+00 5.7883503759781019e-01 0.0000000000000000e+00 0.0000000000000000e+00 0.0000000000000000e+00
3.6000000000000010e-01 0.0000000000000000e+00 5.8792241082456353e-01 0.0000000000000000e+00 0.0000000000000000e+00 0.0000000000000000e+00
3.7000000000000011e-01 0.0000000000000000e+00 5.9680091140006597e-01 0.0000000000000000e+00 0.0000000000000000e+00 0.0000000000000000e+00
3.8000000000000012e-01 0.0000000000000000e+00 6.0547848763163914e-01 0.0000000000000000e+00 0.0000000000000000e+00 0.0000000000000000e+00
3.9000000000000012e-01 0.0000000000000000e+00 6.1396286717070248e-01 0.0000000000000000e+00 0.0000000000000000e+00 0.0000000000000000e+00
4.0000000000000013e-01 0.0000000000000000e+00 6.2226155259596549e-01 0.0000000000000000e+00 0.0000000000000000e+00 0.0000000000000000e+00
4.0999999999999992e-01 0.0000000000000000e+00 6.3038181979552921e-01 0.0000000000000000e+00 0.0000000000000000e+00 0.0000000000000000e+00
4.1999999999999993e-01 0.0000000000000000e+00 6.3833071861423951e-01 0.0000000000000000e+00 0.0000000000000000e+00 0.0000000000000000e+00
4.2999999999999994e-01 0.0000000000000000e+00 6.4611507532814916e-01 0.0000000000000000e+00 0.0000000000000000e+00 0.0000000000000000e+00
4.3999999999999995e-01 0.0000000000000000e+00 6.5374149658563119e-01 0.0000000000000000e+00 0.0000000000000000e+00 0.0000000000000000e+00
4.4999999999999996e-01 0.0000000000000000e+00 6.6121637451879633e-01 0.0000000000000000e+00 0.0000000000000000e+00 0.0000000000000000e+00
4.5999999999999996e-01 0.0000000000000000e+00 6.6854589278248100e-01 0.0000000000000000e+00 0.0000000000000000e+00 0.0000000000000000e+00
4.6999999999999997e-01 0.0000000000000000e+00 6.7573603332360521e-01 0.0000000000000000e+00 0.0000000000000000e+00 0.0000000000000000e+00
4.7999999999999998e-01 0.0000000000000000e+00 6.8279258371935969e-01 0.0000000000000000e+00 0.0000000000000000e+00 0.0000000000000000e+00
4.8999999999999999e-01 0.0000000000000000e+00 6.8972114495501347e-01 0.0000000000000000e+00 0.0000000000000000e+00 0.0000000000000000e+00
5.0000000000000000e-01 0.0000000000000000e+00 6.9652713953829870e-01 0.0000000000000000e+00 0.0000000000000000e+00 0.0000000000000000e+00
5.1000000000000001e-01 0.0000000000000000e+00 7.0321581986925674e-01 0.0000000000000000e+00 0.0000000000000000e+00 0.0000000000000000e+00
5.2000000000000002e-01 0.0000000000000000e+00 7.0979227680377821e-01 0.0000000000000000e+00 0.0000000000000000e+00 0.0000000000000000e+00
5.3000000000000003e-01 0.0000000000000000e+00 7.1626144836490546e-01 0.0000000000000000e+00 0.0000000000000000e+00 0.0000000000000000e+00
5.4000000000000004e-01 0.0000000000000000e+00 7.2262812857067960e-01 0.0000000000000000e+00 0.0000000000000000e+00 0.0000000000000000e+00
5.5000000000000004e-01 0.0000000000000000e+00 7.2889697635887829e-01 0.0000000000000000e+00 0.0000000000000000e+00 0.0000000000000000e+00
5.6000000000000005e-01 0.0000000000000000e+00 7.3507252460152217e-01 0.0000000000000000e+00 0.0000000000000000e+00 0.0000000000000000e+00
5.7000000000000006e-01 0.0000000000000000e+00 7.4115918921041146e-01 0.0000000000000000e+00 0.0000000000000000e+00 0.0000000000000000e+00
5.8000000000000007e-01 0.0000000000000000e+00 7.4716127834595825e-01 0.0000000000000000e+00 0.0000000000000000e+00 0.0000000000000000e+00
5.9000000000000008e-01 0.0000000000000000e+00 7.5308300175021570e-01 0.0000000000000000e+00 0.0000000000000000e+00 0.0000000000000000e+00
6.0000000000000009e-01 0.0000000000000000e+00 7.5892848023360948e-01 0.0000000000000000e+00 0.0000000000000000e+00 0.0000000000000000e+00
6.1000000000000010e-01 0.0000000000000000e+00 7.6470175535542362e-01 0.0000000000000000e+00 0.0000000000000000e+00 0.0000000000000000e+00
6.2000000000000011e-01 0.0000000000000000e+00 7.7040679934751399e-01 0.0000000000000000e+00 0.0000000000000000e+00 0.0000000000000000e+00
6.3000000000000012e-01 0.0000000000000000e+00 7.7604752534099186e-01 0.0000000000000000e+00 0.0000000000000000e+00 0.0000000000000000e+00
6.4000000000000012e-01 0.0000000000000000e+00 7.8162779796967330e-01 0.0000000000000000e+00 0.0000000000000000e+00 0.0000000000000000e+00
6.5000000000000013e-01 0.0000000000000000e+00 7.8715144443642526e-01 0.0000000000000000e+00 0.0000000000000000e+00 0.0000000000000000e+00
6.6000000000000014e-01 0.0000000000000000e+00 7.9262226614644771e-01 0.0000000000000000e+00 0.0000000000000000e+00 0.0000000000000000e+00
6.6999999999999993e-01 0.0000000000000000e+00 7.9804405103108078e-01 0.0000000000000000e+00 0.0000000000000000e+00 0.0000000000000000e+00
6.7999999999999994e-01 0.0000000000000000e+00 8.0342058670952621e-01 0.0000000000000000e+00 0.0000000000000000e+00 0.0000000000000000e+00
6.8999999999999995e-01 0.0000000000000000e+00 8.0875567466617349e-01 0.0000000000000000e+00 0.0000000000000000e+00 0.0000000000000000e+00
6.9999999999999996e-01 0.0000000000000000e+00 8.1405314565698872e-01 0.0000000000000000e+00 0.0000000000000000e+00 0.0000000000000000e+00
7.0999999999999996e-01 0.0000000000000000e+00 8.1931687660540187e-01 0.0000000000000000e+00 0.0000000000000000e+00 0.0000000000000000e+00
7.1999999999999997e-01 0.0000000000000000e+00 8.2455080930568625e-01 0.0000000000000000e+00 0.0000000000000000e+00 0.0000000000000000e+00
7.2999999999999998e-01 0.0000000000000000e+00 8.2975897132718568e-01 0.0000000000000000e+00 0.0000000000000000e+00 0.0000000000000000e+00
7.3999999999999999e-01 0.0000000000000000e+00 8.3494549960943820e-01 0.0000000000000000e+00 0.0000000000000000e+00 0.0000000000000000e+00
7.5000000000000000e-01 0.0000000000000000e+00 8.4011466736539819e-01 0.0000000000000000e+00 0.0000000000000000e+00 0.0000000000000000e+00
7.6000000000000001e-01 0.0000000000000000e+00 8.4527091507932073e-01 0.0000000000000000e+00 0.0000000000000000e+00 0.0000000000000000e+00
7.7000000000000002e-01 0.0000000000000000e+00 8.5041888661328169e-01 0.0000000000000000e+00 0.0000000000000000e+00 0.0000000000000000e+00
7.8000000000000003e-01 0.0000000000000000e+00 8.5556347174958824e-01 0.0000000000000000e+00 0.0000000000000000e+00 0.0000000000000000e+00
7.9000000000000004e-01 0.0000000000000000e+00 8.6070985693119262e-01 0.0000000000000000e+00 0.0000000000000000e+00 0.0000000000000000e+00
8.0000000000000004e-01 0.0000000000000000e+00 8.6586358658339335e-01 0.0000000000000000e+00 0.0000000000000000e+00 0.0000000000000000e+00
8.1000000000000005e-01 0.0000000000000000e+00 8.7103063830262062e-01 0.0000000000000000e+00 0.0000000000000000e+00 0.0000000000000000e+00
8.2000000000000006e-01 0.0000000000000000e+00 8.7621751654779212e-01 0.0000000000000000e+00 0.0000000000000000e+00 0.0000000000000000e+00
8.3000000000000007e-01 0.0000000000000000e+00 8.8143137154425366e-01 0.0000000000000000e+00 0.0000000000000000e+00 0.0000000000000000e+00
8.4000000000000008e-01 0.0000000000000000e+00 8.8668015340666140e-01 0.0000000000000000e+00 0.0000000000000000e+00 0.0000000000000000e+00
8.5000000000000009e-01 0.0000000000000000e+00 8.9197281691694597e-01 0.0000000000000000e+00 0.0000000000000000e+00 0.0000000000000000e+00
8.6000000000000010e-01 0.0000000000000000e+00 8.9731960170167613e-01 0.0000000000000000e+00 0.0000000000000000e+00 0.0000000000000000e+00
8.7000000000000011e-01 0.0000000000000000e+00 9.0273242920370478e-01 0.0000000000000000e+00 0.0000000000000000e+00 0.0000000000000000e+00
8.8000000000000012e-01 0.0000000000000000e+00 9.0822548897373168e-01 0.0000000000000000e+00 0.0000000000000000e+00 0.0000000000000000e+00
8.9000000000000012e-01 0.0000000000000000e+00 9.1381614756061991e-01 0.0000000000000000e+00 0.0000000000000000e+00 0.0000000000000000e+00
9.0000000000000013e-01 0.0000000000000000e+00 9.1952643627355690e-01 0.0000000000000000e+00 0.0000000000000000e+00 0.0000000000000000e+00
9.1000000000000014e-01 0.0000000000000000e+00 9.2538562819903469e-01 0.0000000000000000e+00 0.0000000000000000e+00 0.0000000000000000e+00
9.1999999999999993e-01 0.0000000000000000e+00 9.3143492955181095e-01 0.0000000000000000e+00 0.0000000000000000e+00 0.0000000000000000e+00
9.2999999999999994e-01 0.0000000000000000e+00 9.3773622197639273e-01 0.0000000000000000e+00 0.0000000000000000e+00 0.0000000000000000e+00
9.3999999999999995e-01 0.0000000000000000e+00 9.4438754922549406e-01 0.0000000000000000e+00 0.0000000000000000e+00 0.0000000000000000e+00
9.4999999999999996e-01 0.0000000000000000e+00 9.5154348686201173e-01 0.0000000000000000e+00 0.0000000000000000e+00 0.0000000000000000e+00
9.5999999999999996e-01 0.0000000000000000e+00 9.5940745242160375e-01 0.0000000000000000e+00 0.0000000000000000e+00 0.0000000000000000e+00
9.6999999999999997e-01 0.0000000000000000e+00 9.6809595192317699e-01 0.0000000000000000e+00 0.0000000000000000e+00 0.0000000000000000e+00
9.7999999999999998e-01 0.0000000000000000e+00 9.7748836563566488e-01 0.0000000000000000e+00 0.0000000000000000e+00 0.0000000000000000e+00
9.8999999999999999e-01 0.0000000000000000e+00 9.8804732150371821e-01 0.0000000000000000e+00 0.0000000000000000e+00 0.0000000000000000e+00
1.0000000000000000e+00 0.0000000000000000e+00 1.0000000000000000e+00 0.0000000000000000e+00 0.0000000000000000e+00 0.0000000000000000e+00
-1.0000000000000000e+00 9.3654896513889301e-03 1.0000000000000000e+00 9.3654896513889301e-03 -0.0000000000000000e+00 3.4452033152354978e-04
-9.8999999999999999e-01 9.3654896513889301e-03 9.9999964176678335e-01 7.3564317982042743e-02 -3.7093308866382506e-06 2.7061482274681227e-03
-9.7999999999999998e-01 9.3654896513889301e-03 9.9999953773320860e-01 7.3564310328051830e-02 9.8443210397117780e-12 2.7061479459072448e-03
-9.6999999999999997e-01 9.3654896513889301e-03 9.9999906675001926e-01 7.3564275376665628e-02 5.1912611185847218e-11 2.7061466601802186e-03
-9.5999999999999996e-01 9.3654896513889301e-03 9.9999819205075391e-01 7.3564210432162602e-02 1.5300319372588484e-10 2.7061442711218196e-03
-9.4999999999999996e-01 9.3654896513889301e-03 9.9999683585458421e-01 7.3564109666995711e-02 3.5119842731330649e-10 2.7061405643590132e-03
-9.3999999999999995e-01 9.3654896513889301e-03 9.9999491454556777e-01 7.3563966818593521e-02 6.9326581116861789e-10 2.7061353095158905e-03
-9.2999999999999994e-01 9.3654896513889301e-03 9.9999234170037066e-01 7.3563775410918034e-02 1.2354044514211905e-09 2.7061282683639308e-03
-9.2000000000000004e-01 9.3654896513889301e-03 9.9998902780350174e-01 7.3563528732176725e-02 2.0440870005626259e-09 2.7061191940021090e-03
-9.1000000000000003e-01 9.3654896513889301e-03 9.9998487924495505e-01 7.3563219759539403e-02 3.1972402132587536e-09 2.7061078280875219e-03
-9.0000000000000002e-01 9.3654896513889301e-03 9.9997979700405382e-01 7.3562841060408696e-02 4.7859427881913836e-09 2.7060938972035091e-03
-8.9000000000000001e-01 9.3654896513889301e-03 9.9997367488913536e-01 7.3562384660221664e-02 6.9171858997032826e-09 2.7060771079965807e-03
-8.8000000000000000e-01 9.3654896513889301e-03 9.9996639669664711e-01 7.3561841828772789e-02 9.7191886012702762e-09 2.7060571393160643e-03
-8.7000000000000000e-01 9.3654896513889301e-03 9.9995783079761569e-01 7.3561202672525763e-02 1.3352638276911091e-08 2.7060336272168237e-03
-8.5999999999999999e-01 9.3654896513889301e-03 9.9994781939450772e-01 7.3560455324835600e-02 1.8034101948013363e-08 2.7060061351706450e-03